<?xml version="1.0" encoding="ISO-8859-1"?>
<modeling>
 <generator>
  <i name="program" type="string">vasp </i>
  <i name="version" type="string">5.4.4.18Apr17-6-g9f103f2a35  </i>
  <i name="subversion" type="string">(build Oct 23 2017 13:21:54) complex            parallel </i>
  <i name="platform" type="string">LinuxIFC </i>
  <i name="date" type="string">2019 03 04 </i>
  <i name="time" type="string">04:07:54 </i>
 </generator>
 <incar>
  <i type="string" name="SYSTEM"> St2Nb2O7</i>
  <i type="int" name="ISTART">     1</i>
  <i type="string" name="PREC">accurate     	</i>
  <i type="string" name="ALGO"> Fast     	</i>
  <i type="int" name="ISPIN">     1</i>
  <i name="ENCUT">    380.00000000</i>
  <i type="string" name="LREAL"> Auto</i>
  <i type="int" name="ISMEAR">     0</i>
  <i name="SIGMA">      0.01000000</i>
  <i type="int" name="NWRITE">     2</i>
  <i type="int" name="LMAXMIX">     4</i>
  <v type="int" name="KPOINT_BSE">    -1     0     0     0</v>
 </incar>
 <structure name="primitive_cell" >
  <crystal>
   <varray name="basis" >
    <v>      -2.00130027     -13.66551505       0.00000000 </v>
    <v>      -2.00130027      13.66551505       0.00000000 </v>
    <v>       0.00000000       0.00000000      -5.82266281 </v>
   </varray>
   <i name="volume">    318.48566901 </i>
   <varray name="rec_basis" >
    <v>      -0.24983757      -0.03658845       0.00000000 </v>
    <v>      -0.24983757       0.03658845       0.00000000 </v>
    <v>       0.00000000       0.00000000      -0.17174273 </v>
   </varray>
  </crystal>
  <varray name="positions" >
   <v>      -0.29117294       0.29117294      -0.16898472 </v>
   <v>       0.21475724      -0.21475724       0.08417989 </v>
   <v>      -0.21475724       0.21475724      -0.41582011 </v>
   <v>       0.19867050      -0.19867050      -0.44141213 </v>
   <v>      -0.19867050       0.19867050       0.05858784 </v>
   <v>      -0.34948932       0.34948932       0.25543591 </v>
   <v>       0.11143999      -0.11143999      -0.04034251 </v>
   <v>      -0.16113146       0.16113146      -0.20592084 </v>
   <v>       0.16113146      -0.16113146       0.29407916 </v>
   <v>       0.29117294      -0.29117294       0.33101526 </v>
   <v>       0.34948932      -0.34948932      -0.24456409 </v>
   <v>       0.09199481      -0.09199481       0.45196527 </v>
   <v>      -0.45153464       0.45153464      -0.27233217 </v>
   <v>       0.05852757      -0.05852757      -0.23855770 </v>
   <v>      -0.44922753       0.44922753       0.26430314 </v>
   <v>      -0.11143999       0.11143999       0.45965752 </v>
   <v>      -0.09199481       0.09199481      -0.04803473 </v>
   <v>       0.00871453      -0.00871453       0.00736580 </v>
   <v>      -0.00871456       0.00871456      -0.49263420 </v>
   <v>      -0.05852757       0.05852757       0.26144229 </v>
   <v>       0.44922753      -0.44922753      -0.23569686 </v>
   <v>       0.45153464      -0.45153464       0.22766783 </v>
  </varray>
 </structure>
 <varray name="primitive_index" >
  <v type="int" >        1 </v>
  <v type="int" >       17 </v>
  <v type="int" >       20 </v>
  <v type="int" >       21 </v>
  <v type="int" >       24 </v>
  <v type="int" >       37 </v>
  <v type="int" >       25 </v>
  <v type="int" >       12 </v>
  <v type="int" >        9 </v>
  <v type="int" >        4 </v>
  <v type="int" >       40 </v>
  <v type="int" >       29 </v>
  <v type="int" >       41 </v>
  <v type="int" >       13 </v>
  <v type="int" >        5 </v>
  <v type="int" >       28 </v>
  <v type="int" >       32 </v>
  <v type="int" >       33 </v>
  <v type="int" >       34 </v>
  <v type="int" >       16 </v>
  <v type="int" >        8 </v>
  <v type="int" >       44 </v>
 </varray>
 <kpoints>
  <generation param="Monkhorst-Pack">
   <v type="int" name="divisions">      24        8       16 </v>
   <v name="usershift">      0.00000000       0.00000000       0.00000000 </v>
   <v name="genvec1">      0.04166667       0.00000000       0.00000000 </v>
   <v name="genvec2">      0.00000000       0.12500000       0.00000000 </v>
   <v name="genvec3">      0.00000000       0.00000000       0.06250000 </v>
   <v name="shift">      0.50000000       0.50000000       0.50000000 </v>
  </generation>
  <varray name="kpointlist" >
   <v>       0.02083333       0.06250000       0.03125000 </v>
   <v>       0.06250000       0.06250000       0.03125000 </v>
   <v>       0.10416667       0.06250000       0.03125000 </v>
   <v>       0.14583333       0.06250000       0.03125000 </v>
   <v>       0.18750000       0.06250000       0.03125000 </v>
   <v>       0.22916667       0.06250000       0.03125000 </v>
   <v>       0.27083333       0.06250000       0.03125000 </v>
   <v>       0.31250000       0.06250000       0.03125000 </v>
   <v>       0.35416667       0.06250000       0.03125000 </v>
   <v>       0.39583333       0.06250000       0.03125000 </v>
   <v>       0.43750000       0.06250000       0.03125000 </v>
   <v>       0.47916667       0.06250000       0.03125000 </v>
   <v>       0.02083333       0.18750000       0.03125000 </v>
   <v>       0.06250000       0.18750000       0.03125000 </v>
   <v>       0.10416667       0.18750000       0.03125000 </v>
   <v>       0.14583333       0.18750000       0.03125000 </v>
   <v>       0.18750000       0.18750000       0.03125000 </v>
   <v>       0.22916667       0.18750000       0.03125000 </v>
   <v>       0.27083333       0.18750000       0.03125000 </v>
   <v>       0.31250000       0.18750000       0.03125000 </v>
   <v>       0.35416667       0.18750000       0.03125000 </v>
   <v>       0.39583333       0.18750000       0.03125000 </v>
   <v>       0.43750000       0.18750000       0.03125000 </v>
   <v>       0.47916667       0.18750000       0.03125000 </v>
   <v>       0.02083333       0.31250000       0.03125000 </v>
   <v>       0.06250000       0.31250000       0.03125000 </v>
   <v>       0.10416667       0.31250000       0.03125000 </v>
   <v>       0.14583333       0.31250000       0.03125000 </v>
   <v>       0.18750000       0.31250000       0.03125000 </v>
   <v>       0.22916667       0.31250000       0.03125000 </v>
   <v>       0.27083333       0.31250000       0.03125000 </v>
   <v>       0.31250000       0.31250000       0.03125000 </v>
   <v>       0.35416667       0.31250000       0.03125000 </v>
   <v>       0.39583333       0.31250000       0.03125000 </v>
   <v>       0.43750000       0.31250000       0.03125000 </v>
   <v>       0.47916667       0.31250000       0.03125000 </v>
   <v>       0.02083333       0.43750000       0.03125000 </v>
   <v>       0.06250000       0.43750000       0.03125000 </v>
   <v>       0.10416667       0.43750000       0.03125000 </v>
   <v>       0.14583333       0.43750000       0.03125000 </v>
   <v>       0.18750000       0.43750000       0.03125000 </v>
   <v>       0.22916667       0.43750000       0.03125000 </v>
   <v>       0.27083333       0.43750000       0.03125000 </v>
   <v>       0.31250000       0.43750000       0.03125000 </v>
   <v>       0.35416667       0.43750000       0.03125000 </v>
   <v>       0.39583333       0.43750000       0.03125000 </v>
   <v>       0.43750000       0.43750000       0.03125000 </v>
   <v>       0.47916667       0.43750000       0.03125000 </v>
   <v>       0.02083333       0.06250000       0.09375000 </v>
   <v>       0.06250000       0.06250000       0.09375000 </v>
   <v>       0.10416667       0.06250000       0.09375000 </v>
   <v>       0.14583333       0.06250000       0.09375000 </v>
   <v>       0.18750000       0.06250000       0.09375000 </v>
   <v>       0.22916667       0.06250000       0.09375000 </v>
   <v>       0.27083333       0.06250000       0.09375000 </v>
   <v>       0.31250000       0.06250000       0.09375000 </v>
   <v>       0.35416667       0.06250000       0.09375000 </v>
   <v>       0.39583333       0.06250000       0.09375000 </v>
   <v>       0.43750000       0.06250000       0.09375000 </v>
   <v>       0.47916667       0.06250000       0.09375000 </v>
   <v>       0.02083333       0.18750000       0.09375000 </v>
   <v>       0.06250000       0.18750000       0.09375000 </v>
   <v>       0.10416667       0.18750000       0.09375000 </v>
   <v>       0.14583333       0.18750000       0.09375000 </v>
   <v>       0.18750000       0.18750000       0.09375000 </v>
   <v>       0.22916667       0.18750000       0.09375000 </v>
   <v>       0.27083333       0.18750000       0.09375000 </v>
   <v>       0.31250000       0.18750000       0.09375000 </v>
   <v>       0.35416667       0.18750000       0.09375000 </v>
   <v>       0.39583333       0.18750000       0.09375000 </v>
   <v>       0.43750000       0.18750000       0.09375000 </v>
   <v>       0.47916667       0.18750000       0.09375000 </v>
   <v>       0.02083333       0.31250000       0.09375000 </v>
   <v>       0.06250000       0.31250000       0.09375000 </v>
   <v>       0.10416667       0.31250000       0.09375000 </v>
   <v>       0.14583333       0.31250000       0.09375000 </v>
   <v>       0.18750000       0.31250000       0.09375000 </v>
   <v>       0.22916667       0.31250000       0.09375000 </v>
   <v>       0.27083333       0.31250000       0.09375000 </v>
   <v>       0.31250000       0.31250000       0.09375000 </v>
   <v>       0.35416667       0.31250000       0.09375000 </v>
   <v>       0.39583333       0.31250000       0.09375000 </v>
   <v>       0.43750000       0.31250000       0.09375000 </v>
   <v>       0.47916667       0.31250000       0.09375000 </v>
   <v>       0.02083333       0.43750000       0.09375000 </v>
   <v>       0.06250000       0.43750000       0.09375000 </v>
   <v>       0.10416667       0.43750000       0.09375000 </v>
   <v>       0.14583333       0.43750000       0.09375000 </v>
   <v>       0.18750000       0.43750000       0.09375000 </v>
   <v>       0.22916667       0.43750000       0.09375000 </v>
   <v>       0.27083333       0.43750000       0.09375000 </v>
   <v>       0.31250000       0.43750000       0.09375000 </v>
   <v>       0.35416667       0.43750000       0.09375000 </v>
   <v>       0.39583333       0.43750000       0.09375000 </v>
   <v>       0.43750000       0.43750000       0.09375000 </v>
   <v>       0.47916667       0.43750000       0.09375000 </v>
   <v>       0.02083333       0.06250000       0.15625000 </v>
   <v>       0.06250000       0.06250000       0.15625000 </v>
   <v>       0.10416667       0.06250000       0.15625000 </v>
   <v>       0.14583333       0.06250000       0.15625000 </v>
   <v>       0.18750000       0.06250000       0.15625000 </v>
   <v>       0.22916667       0.06250000       0.15625000 </v>
   <v>       0.27083333       0.06250000       0.15625000 </v>
   <v>       0.31250000       0.06250000       0.15625000 </v>
   <v>       0.35416667       0.06250000       0.15625000 </v>
   <v>       0.39583333       0.06250000       0.15625000 </v>
   <v>       0.43750000       0.06250000       0.15625000 </v>
   <v>       0.47916667       0.06250000       0.15625000 </v>
   <v>       0.02083333       0.18750000       0.15625000 </v>
   <v>       0.06250000       0.18750000       0.15625000 </v>
   <v>       0.10416667       0.18750000       0.15625000 </v>
   <v>       0.14583333       0.18750000       0.15625000 </v>
   <v>       0.18750000       0.18750000       0.15625000 </v>
   <v>       0.22916667       0.18750000       0.15625000 </v>
   <v>       0.27083333       0.18750000       0.15625000 </v>
   <v>       0.31250000       0.18750000       0.15625000 </v>
   <v>       0.35416667       0.18750000       0.15625000 </v>
   <v>       0.39583333       0.18750000       0.15625000 </v>
   <v>       0.43750000       0.18750000       0.15625000 </v>
   <v>       0.47916667       0.18750000       0.15625000 </v>
   <v>       0.02083333       0.31250000       0.15625000 </v>
   <v>       0.06250000       0.31250000       0.15625000 </v>
   <v>       0.10416667       0.31250000       0.15625000 </v>
   <v>       0.14583333       0.31250000       0.15625000 </v>
   <v>       0.18750000       0.31250000       0.15625000 </v>
   <v>       0.22916667       0.31250000       0.15625000 </v>
   <v>       0.27083333       0.31250000       0.15625000 </v>
   <v>       0.31250000       0.31250000       0.15625000 </v>
   <v>       0.35416667       0.31250000       0.15625000 </v>
   <v>       0.39583333       0.31250000       0.15625000 </v>
   <v>       0.43750000       0.31250000       0.15625000 </v>
   <v>       0.47916667       0.31250000       0.15625000 </v>
   <v>       0.02083333       0.43750000       0.15625000 </v>
   <v>       0.06250000       0.43750000       0.15625000 </v>
   <v>       0.10416667       0.43750000       0.15625000 </v>
   <v>       0.14583333       0.43750000       0.15625000 </v>
   <v>       0.18750000       0.43750000       0.15625000 </v>
   <v>       0.22916667       0.43750000       0.15625000 </v>
   <v>       0.27083333       0.43750000       0.15625000 </v>
   <v>       0.31250000       0.43750000       0.15625000 </v>
   <v>       0.35416667       0.43750000       0.15625000 </v>
   <v>       0.39583333       0.43750000       0.15625000 </v>
   <v>       0.43750000       0.43750000       0.15625000 </v>
   <v>       0.47916667       0.43750000       0.15625000 </v>
   <v>       0.02083333       0.06250000       0.21875000 </v>
   <v>       0.06250000       0.06250000       0.21875000 </v>
   <v>       0.10416667       0.06250000       0.21875000 </v>
   <v>       0.14583333       0.06250000       0.21875000 </v>
   <v>       0.18750000       0.06250000       0.21875000 </v>
   <v>       0.22916667       0.06250000       0.21875000 </v>
   <v>       0.27083333       0.06250000       0.21875000 </v>
   <v>       0.31250000       0.06250000       0.21875000 </v>
   <v>       0.35416667       0.06250000       0.21875000 </v>
   <v>       0.39583333       0.06250000       0.21875000 </v>
   <v>       0.43750000       0.06250000       0.21875000 </v>
   <v>       0.47916667       0.06250000       0.21875000 </v>
   <v>       0.02083333       0.18750000       0.21875000 </v>
   <v>       0.06250000       0.18750000       0.21875000 </v>
   <v>       0.10416667       0.18750000       0.21875000 </v>
   <v>       0.14583333       0.18750000       0.21875000 </v>
   <v>       0.18750000       0.18750000       0.21875000 </v>
   <v>       0.22916667       0.18750000       0.21875000 </v>
   <v>       0.27083333       0.18750000       0.21875000 </v>
   <v>       0.31250000       0.18750000       0.21875000 </v>
   <v>       0.35416667       0.18750000       0.21875000 </v>
   <v>       0.39583333       0.18750000       0.21875000 </v>
   <v>       0.43750000       0.18750000       0.21875000 </v>
   <v>       0.47916667       0.18750000       0.21875000 </v>
   <v>       0.02083333       0.31250000       0.21875000 </v>
   <v>       0.06250000       0.31250000       0.21875000 </v>
   <v>       0.10416667       0.31250000       0.21875000 </v>
   <v>       0.14583333       0.31250000       0.21875000 </v>
   <v>       0.18750000       0.31250000       0.21875000 </v>
   <v>       0.22916667       0.31250000       0.21875000 </v>
   <v>       0.27083333       0.31250000       0.21875000 </v>
   <v>       0.31250000       0.31250000       0.21875000 </v>
   <v>       0.35416667       0.31250000       0.21875000 </v>
   <v>       0.39583333       0.31250000       0.21875000 </v>
   <v>       0.43750000       0.31250000       0.21875000 </v>
   <v>       0.47916667       0.31250000       0.21875000 </v>
   <v>       0.02083333       0.43750000       0.21875000 </v>
   <v>       0.06250000       0.43750000       0.21875000 </v>
   <v>       0.10416667       0.43750000       0.21875000 </v>
   <v>       0.14583333       0.43750000       0.21875000 </v>
   <v>       0.18750000       0.43750000       0.21875000 </v>
   <v>       0.22916667       0.43750000       0.21875000 </v>
   <v>       0.27083333       0.43750000       0.21875000 </v>
   <v>       0.31250000       0.43750000       0.21875000 </v>
   <v>       0.35416667       0.43750000       0.21875000 </v>
   <v>       0.39583333       0.43750000       0.21875000 </v>
   <v>       0.43750000       0.43750000       0.21875000 </v>
   <v>       0.47916667       0.43750000       0.21875000 </v>
   <v>       0.02083333       0.06250000       0.28125000 </v>
   <v>       0.06250000       0.06250000       0.28125000 </v>
   <v>       0.10416667       0.06250000       0.28125000 </v>
   <v>       0.14583333       0.06250000       0.28125000 </v>
   <v>       0.18750000       0.06250000       0.28125000 </v>
   <v>       0.22916667       0.06250000       0.28125000 </v>
   <v>       0.27083333       0.06250000       0.28125000 </v>
   <v>       0.31250000       0.06250000       0.28125000 </v>
   <v>       0.35416667       0.06250000       0.28125000 </v>
   <v>       0.39583333       0.06250000       0.28125000 </v>
   <v>       0.43750000       0.06250000       0.28125000 </v>
   <v>       0.47916667       0.06250000       0.28125000 </v>
   <v>       0.02083333       0.18750000       0.28125000 </v>
   <v>       0.06250000       0.18750000       0.28125000 </v>
   <v>       0.10416667       0.18750000       0.28125000 </v>
   <v>       0.14583333       0.18750000       0.28125000 </v>
   <v>       0.18750000       0.18750000       0.28125000 </v>
   <v>       0.22916667       0.18750000       0.28125000 </v>
   <v>       0.27083333       0.18750000       0.28125000 </v>
   <v>       0.31250000       0.18750000       0.28125000 </v>
   <v>       0.35416667       0.18750000       0.28125000 </v>
   <v>       0.39583333       0.18750000       0.28125000 </v>
   <v>       0.43750000       0.18750000       0.28125000 </v>
   <v>       0.47916667       0.18750000       0.28125000 </v>
   <v>       0.02083333       0.31250000       0.28125000 </v>
   <v>       0.06250000       0.31250000       0.28125000 </v>
   <v>       0.10416667       0.31250000       0.28125000 </v>
   <v>       0.14583333       0.31250000       0.28125000 </v>
   <v>       0.18750000       0.31250000       0.28125000 </v>
   <v>       0.22916667       0.31250000       0.28125000 </v>
   <v>       0.27083333       0.31250000       0.28125000 </v>
   <v>       0.31250000       0.31250000       0.28125000 </v>
   <v>       0.35416667       0.31250000       0.28125000 </v>
   <v>       0.39583333       0.31250000       0.28125000 </v>
   <v>       0.43750000       0.31250000       0.28125000 </v>
   <v>       0.47916667       0.31250000       0.28125000 </v>
   <v>       0.02083333       0.43750000       0.28125000 </v>
   <v>       0.06250000       0.43750000       0.28125000 </v>
   <v>       0.10416667       0.43750000       0.28125000 </v>
   <v>       0.14583333       0.43750000       0.28125000 </v>
   <v>       0.18750000       0.43750000       0.28125000 </v>
   <v>       0.22916667       0.43750000       0.28125000 </v>
   <v>       0.27083333       0.43750000       0.28125000 </v>
   <v>       0.31250000       0.43750000       0.28125000 </v>
   <v>       0.35416667       0.43750000       0.28125000 </v>
   <v>       0.39583333       0.43750000       0.28125000 </v>
   <v>       0.43750000       0.43750000       0.28125000 </v>
   <v>       0.47916667       0.43750000       0.28125000 </v>
   <v>       0.02083333       0.06250000       0.34375000 </v>
   <v>       0.06250000       0.06250000       0.34375000 </v>
   <v>       0.10416667       0.06250000       0.34375000 </v>
   <v>       0.14583333       0.06250000       0.34375000 </v>
   <v>       0.18750000       0.06250000       0.34375000 </v>
   <v>       0.22916667       0.06250000       0.34375000 </v>
   <v>       0.27083333       0.06250000       0.34375000 </v>
   <v>       0.31250000       0.06250000       0.34375000 </v>
   <v>       0.35416667       0.06250000       0.34375000 </v>
   <v>       0.39583333       0.06250000       0.34375000 </v>
   <v>       0.43750000       0.06250000       0.34375000 </v>
   <v>       0.47916667       0.06250000       0.34375000 </v>
   <v>       0.02083333       0.18750000       0.34375000 </v>
   <v>       0.06250000       0.18750000       0.34375000 </v>
   <v>       0.10416667       0.18750000       0.34375000 </v>
   <v>       0.14583333       0.18750000       0.34375000 </v>
   <v>       0.18750000       0.18750000       0.34375000 </v>
   <v>       0.22916667       0.18750000       0.34375000 </v>
   <v>       0.27083333       0.18750000       0.34375000 </v>
   <v>       0.31250000       0.18750000       0.34375000 </v>
   <v>       0.35416667       0.18750000       0.34375000 </v>
   <v>       0.39583333       0.18750000       0.34375000 </v>
   <v>       0.43750000       0.18750000       0.34375000 </v>
   <v>       0.47916667       0.18750000       0.34375000 </v>
   <v>       0.02083333       0.31250000       0.34375000 </v>
   <v>       0.06250000       0.31250000       0.34375000 </v>
   <v>       0.10416667       0.31250000       0.34375000 </v>
   <v>       0.14583333       0.31250000       0.34375000 </v>
   <v>       0.18750000       0.31250000       0.34375000 </v>
   <v>       0.22916667       0.31250000       0.34375000 </v>
   <v>       0.27083333       0.31250000       0.34375000 </v>
   <v>       0.31250000       0.31250000       0.34375000 </v>
   <v>       0.35416667       0.31250000       0.34375000 </v>
   <v>       0.39583333       0.31250000       0.34375000 </v>
   <v>       0.43750000       0.31250000       0.34375000 </v>
   <v>       0.47916667       0.31250000       0.34375000 </v>
   <v>       0.02083333       0.43750000       0.34375000 </v>
   <v>       0.06250000       0.43750000       0.34375000 </v>
   <v>       0.10416667       0.43750000       0.34375000 </v>
   <v>       0.14583333       0.43750000       0.34375000 </v>
   <v>       0.18750000       0.43750000       0.34375000 </v>
   <v>       0.22916667       0.43750000       0.34375000 </v>
   <v>       0.27083333       0.43750000       0.34375000 </v>
   <v>       0.31250000       0.43750000       0.34375000 </v>
   <v>       0.35416667       0.43750000       0.34375000 </v>
   <v>       0.39583333       0.43750000       0.34375000 </v>
   <v>       0.43750000       0.43750000       0.34375000 </v>
   <v>       0.47916667       0.43750000       0.34375000 </v>
   <v>       0.02083333       0.06250000       0.40625000 </v>
   <v>       0.06250000       0.06250000       0.40625000 </v>
   <v>       0.10416667       0.06250000       0.40625000 </v>
   <v>       0.14583333       0.06250000       0.40625000 </v>
   <v>       0.18750000       0.06250000       0.40625000 </v>
   <v>       0.22916667       0.06250000       0.40625000 </v>
   <v>       0.27083333       0.06250000       0.40625000 </v>
   <v>       0.31250000       0.06250000       0.40625000 </v>
   <v>       0.35416667       0.06250000       0.40625000 </v>
   <v>       0.39583333       0.06250000       0.40625000 </v>
   <v>       0.43750000       0.06250000       0.40625000 </v>
   <v>       0.47916667       0.06250000       0.40625000 </v>
   <v>       0.02083333       0.18750000       0.40625000 </v>
   <v>       0.06250000       0.18750000       0.40625000 </v>
   <v>       0.10416667       0.18750000       0.40625000 </v>
   <v>       0.14583333       0.18750000       0.40625000 </v>
   <v>       0.18750000       0.18750000       0.40625000 </v>
   <v>       0.22916667       0.18750000       0.40625000 </v>
   <v>       0.27083333       0.18750000       0.40625000 </v>
   <v>       0.31250000       0.18750000       0.40625000 </v>
   <v>       0.35416667       0.18750000       0.40625000 </v>
   <v>       0.39583333       0.18750000       0.40625000 </v>
   <v>       0.43750000       0.18750000       0.40625000 </v>
   <v>       0.47916667       0.18750000       0.40625000 </v>
   <v>       0.02083333       0.31250000       0.40625000 </v>
   <v>       0.06250000       0.31250000       0.40625000 </v>
   <v>       0.10416667       0.31250000       0.40625000 </v>
   <v>       0.14583333       0.31250000       0.40625000 </v>
   <v>       0.18750000       0.31250000       0.40625000 </v>
   <v>       0.22916667       0.31250000       0.40625000 </v>
   <v>       0.27083333       0.31250000       0.40625000 </v>
   <v>       0.31250000       0.31250000       0.40625000 </v>
   <v>       0.35416667       0.31250000       0.40625000 </v>
   <v>       0.39583333       0.31250000       0.40625000 </v>
   <v>       0.43750000       0.31250000       0.40625000 </v>
   <v>       0.47916667       0.31250000       0.40625000 </v>
   <v>       0.02083333       0.43750000       0.40625000 </v>
   <v>       0.06250000       0.43750000       0.40625000 </v>
   <v>       0.10416667       0.43750000       0.40625000 </v>
   <v>       0.14583333       0.43750000       0.40625000 </v>
   <v>       0.18750000       0.43750000       0.40625000 </v>
   <v>       0.22916667       0.43750000       0.40625000 </v>
   <v>       0.27083333       0.43750000       0.40625000 </v>
   <v>       0.31250000       0.43750000       0.40625000 </v>
   <v>       0.35416667       0.43750000       0.40625000 </v>
   <v>       0.39583333       0.43750000       0.40625000 </v>
   <v>       0.43750000       0.43750000       0.40625000 </v>
   <v>       0.47916667       0.43750000       0.40625000 </v>
   <v>       0.02083333       0.06250000       0.46875000 </v>
   <v>       0.06250000       0.06250000       0.46875000 </v>
   <v>       0.10416667       0.06250000       0.46875000 </v>
   <v>       0.14583333       0.06250000       0.46875000 </v>
   <v>       0.18750000       0.06250000       0.46875000 </v>
   <v>       0.22916667       0.06250000       0.46875000 </v>
   <v>       0.27083333       0.06250000       0.46875000 </v>
   <v>       0.31250000       0.06250000       0.46875000 </v>
   <v>       0.35416667       0.06250000       0.46875000 </v>
   <v>       0.39583333       0.06250000       0.46875000 </v>
   <v>       0.43750000       0.06250000       0.46875000 </v>
   <v>       0.47916667       0.06250000       0.46875000 </v>
   <v>       0.02083333       0.18750000       0.46875000 </v>
   <v>       0.06250000       0.18750000       0.46875000 </v>
   <v>       0.10416667       0.18750000       0.46875000 </v>
   <v>       0.14583333       0.18750000       0.46875000 </v>
   <v>       0.18750000       0.18750000       0.46875000 </v>
   <v>       0.22916667       0.18750000       0.46875000 </v>
   <v>       0.27083333       0.18750000       0.46875000 </v>
   <v>       0.31250000       0.18750000       0.46875000 </v>
   <v>       0.35416667       0.18750000       0.46875000 </v>
   <v>       0.39583333       0.18750000       0.46875000 </v>
   <v>       0.43750000       0.18750000       0.46875000 </v>
   <v>       0.47916667       0.18750000       0.46875000 </v>
   <v>       0.02083333       0.31250000       0.46875000 </v>
   <v>       0.06250000       0.31250000       0.46875000 </v>
   <v>       0.10416667       0.31250000       0.46875000 </v>
   <v>       0.14583333       0.31250000       0.46875000 </v>
   <v>       0.18750000       0.31250000       0.46875000 </v>
   <v>       0.22916667       0.31250000       0.46875000 </v>
   <v>       0.27083333       0.31250000       0.46875000 </v>
   <v>       0.31250000       0.31250000       0.46875000 </v>
   <v>       0.35416667       0.31250000       0.46875000 </v>
   <v>       0.39583333       0.31250000       0.46875000 </v>
   <v>       0.43750000       0.31250000       0.46875000 </v>
   <v>       0.47916667       0.31250000       0.46875000 </v>
   <v>       0.02083333       0.43750000       0.46875000 </v>
   <v>       0.06250000       0.43750000       0.46875000 </v>
   <v>       0.10416667       0.43750000       0.46875000 </v>
   <v>       0.14583333       0.43750000       0.46875000 </v>
   <v>       0.18750000       0.43750000       0.46875000 </v>
   <v>       0.22916667       0.43750000       0.46875000 </v>
   <v>       0.27083333       0.43750000       0.46875000 </v>
   <v>       0.31250000       0.43750000       0.46875000 </v>
   <v>       0.35416667       0.43750000       0.46875000 </v>
   <v>       0.39583333       0.43750000       0.46875000 </v>
   <v>       0.43750000       0.43750000       0.46875000 </v>
   <v>       0.47916667       0.43750000       0.46875000 </v>
  </varray>
  <varray name="weights" >
   <v>       0.00260417 </v>
   <v>       0.00260417 </v>
   <v>       0.00260417 </v>
   <v>       0.00260417 </v>
   <v>       0.00260417 </v>
   <v>       0.00260417 </v>
   <v>       0.00260417 </v>
   <v>       0.00260417 </v>
   <v>       0.00260417 </v>
   <v>       0.00260417 </v>
   <v>       0.00260417 </v>
   <v>       0.00260417 </v>
   <v>       0.00260417 </v>
   <v>       0.00260417 </v>
   <v>       0.00260417 </v>
   <v>       0.00260417 </v>
   <v>       0.00260417 </v>
   <v>       0.00260417 </v>
   <v>       0.00260417 </v>
   <v>       0.00260417 </v>
   <v>       0.00260417 </v>
   <v>       0.00260417 </v>
   <v>       0.00260417 </v>
   <v>       0.00260417 </v>
   <v>       0.00260417 </v>
   <v>       0.00260417 </v>
   <v>       0.00260417 </v>
   <v>       0.00260417 </v>
   <v>       0.00260417 </v>
   <v>       0.00260417 </v>
   <v>       0.00260417 </v>
   <v>       0.00260417 </v>
   <v>       0.00260417 </v>
   <v>       0.00260417 </v>
   <v>       0.00260417 </v>
   <v>       0.00260417 </v>
   <v>       0.00260417 </v>
   <v>       0.00260417 </v>
   <v>       0.00260417 </v>
   <v>       0.00260417 </v>
   <v>       0.00260417 </v>
   <v>       0.00260417 </v>
   <v>       0.00260417 </v>
   <v>       0.00260417 </v>
   <v>       0.00260417 </v>
   <v>       0.00260417 </v>
   <v>       0.00260417 </v>
   <v>       0.00260417 </v>
   <v>       0.00260417 </v>
   <v>       0.00260417 </v>
   <v>       0.00260417 </v>
   <v>       0.00260417 </v>
   <v>       0.00260417 </v>
   <v>       0.00260417 </v>
   <v>       0.00260417 </v>
   <v>       0.00260417 </v>
   <v>       0.00260417 </v>
   <v>       0.00260417 </v>
   <v>       0.00260417 </v>
   <v>       0.00260417 </v>
   <v>       0.00260417 </v>
   <v>       0.00260417 </v>
   <v>       0.00260417 </v>
   <v>       0.00260417 </v>
   <v>       0.00260417 </v>
   <v>       0.00260417 </v>
   <v>       0.00260417 </v>
   <v>       0.00260417 </v>
   <v>       0.00260417 </v>
   <v>       0.00260417 </v>
   <v>       0.00260417 </v>
   <v>       0.00260417 </v>
   <v>       0.00260417 </v>
   <v>       0.00260417 </v>
   <v>       0.00260417 </v>
   <v>       0.00260417 </v>
   <v>       0.00260417 </v>
   <v>       0.00260417 </v>
   <v>       0.00260417 </v>
   <v>       0.00260417 </v>
   <v>       0.00260417 </v>
   <v>       0.00260417 </v>
   <v>       0.00260417 </v>
   <v>       0.00260417 </v>
   <v>       0.00260417 </v>
   <v>       0.00260417 </v>
   <v>       0.00260417 </v>
   <v>       0.00260417 </v>
   <v>       0.00260417 </v>
   <v>       0.00260417 </v>
   <v>       0.00260417 </v>
   <v>       0.00260417 </v>
   <v>       0.00260417 </v>
   <v>       0.00260417 </v>
   <v>       0.00260417 </v>
   <v>       0.00260417 </v>
   <v>       0.00260417 </v>
   <v>       0.00260417 </v>
   <v>       0.00260417 </v>
   <v>       0.00260417 </v>
   <v>       0.00260417 </v>
   <v>       0.00260417 </v>
   <v>       0.00260417 </v>
   <v>       0.00260417 </v>
   <v>       0.00260417 </v>
   <v>       0.00260417 </v>
   <v>       0.00260417 </v>
   <v>       0.00260417 </v>
   <v>       0.00260417 </v>
   <v>       0.00260417 </v>
   <v>       0.00260417 </v>
   <v>       0.00260417 </v>
   <v>       0.00260417 </v>
   <v>       0.00260417 </v>
   <v>       0.00260417 </v>
   <v>       0.00260417 </v>
   <v>       0.00260417 </v>
   <v>       0.00260417 </v>
   <v>       0.00260417 </v>
   <v>       0.00260417 </v>
   <v>       0.00260417 </v>
   <v>       0.00260417 </v>
   <v>       0.00260417 </v>
   <v>       0.00260417 </v>
   <v>       0.00260417 </v>
   <v>       0.00260417 </v>
   <v>       0.00260417 </v>
   <v>       0.00260417 </v>
   <v>       0.00260417 </v>
   <v>       0.00260417 </v>
   <v>       0.00260417 </v>
   <v>       0.00260417 </v>
   <v>       0.00260417 </v>
   <v>       0.00260417 </v>
   <v>       0.00260417 </v>
   <v>       0.00260417 </v>
   <v>       0.00260417 </v>
   <v>       0.00260417 </v>
   <v>       0.00260417 </v>
   <v>       0.00260417 </v>
   <v>       0.00260417 </v>
   <v>       0.00260417 </v>
   <v>       0.00260417 </v>
   <v>       0.00260417 </v>
   <v>       0.00260417 </v>
   <v>       0.00260417 </v>
   <v>       0.00260417 </v>
   <v>       0.00260417 </v>
   <v>       0.00260417 </v>
   <v>       0.00260417 </v>
   <v>       0.00260417 </v>
   <v>       0.00260417 </v>
   <v>       0.00260417 </v>
   <v>       0.00260417 </v>
   <v>       0.00260417 </v>
   <v>       0.00260417 </v>
   <v>       0.00260417 </v>
   <v>       0.00260417 </v>
   <v>       0.00260417 </v>
   <v>       0.00260417 </v>
   <v>       0.00260417 </v>
   <v>       0.00260417 </v>
   <v>       0.00260417 </v>
   <v>       0.00260417 </v>
   <v>       0.00260417 </v>
   <v>       0.00260417 </v>
   <v>       0.00260417 </v>
   <v>       0.00260417 </v>
   <v>       0.00260417 </v>
   <v>       0.00260417 </v>
   <v>       0.00260417 </v>
   <v>       0.00260417 </v>
   <v>       0.00260417 </v>
   <v>       0.00260417 </v>
   <v>       0.00260417 </v>
   <v>       0.00260417 </v>
   <v>       0.00260417 </v>
   <v>       0.00260417 </v>
   <v>       0.00260417 </v>
   <v>       0.00260417 </v>
   <v>       0.00260417 </v>
   <v>       0.00260417 </v>
   <v>       0.00260417 </v>
   <v>       0.00260417 </v>
   <v>       0.00260417 </v>
   <v>       0.00260417 </v>
   <v>       0.00260417 </v>
   <v>       0.00260417 </v>
   <v>       0.00260417 </v>
   <v>       0.00260417 </v>
   <v>       0.00260417 </v>
   <v>       0.00260417 </v>
   <v>       0.00260417 </v>
   <v>       0.00260417 </v>
   <v>       0.00260417 </v>
   <v>       0.00260417 </v>
   <v>       0.00260417 </v>
   <v>       0.00260417 </v>
   <v>       0.00260417 </v>
   <v>       0.00260417 </v>
   <v>       0.00260417 </v>
   <v>       0.00260417 </v>
   <v>       0.00260417 </v>
   <v>       0.00260417 </v>
   <v>       0.00260417 </v>
   <v>       0.00260417 </v>
   <v>       0.00260417 </v>
   <v>       0.00260417 </v>
   <v>       0.00260417 </v>
   <v>       0.00260417 </v>
   <v>       0.00260417 </v>
   <v>       0.00260417 </v>
   <v>       0.00260417 </v>
   <v>       0.00260417 </v>
   <v>       0.00260417 </v>
   <v>       0.00260417 </v>
   <v>       0.00260417 </v>
   <v>       0.00260417 </v>
   <v>       0.00260417 </v>
   <v>       0.00260417 </v>
   <v>       0.00260417 </v>
   <v>       0.00260417 </v>
   <v>       0.00260417 </v>
   <v>       0.00260417 </v>
   <v>       0.00260417 </v>
   <v>       0.00260417 </v>
   <v>       0.00260417 </v>
   <v>       0.00260417 </v>
   <v>       0.00260417 </v>
   <v>       0.00260417 </v>
   <v>       0.00260417 </v>
   <v>       0.00260417 </v>
   <v>       0.00260417 </v>
   <v>       0.00260417 </v>
   <v>       0.00260417 </v>
   <v>       0.00260417 </v>
   <v>       0.00260417 </v>
   <v>       0.00260417 </v>
   <v>       0.00260417 </v>
   <v>       0.00260417 </v>
   <v>       0.00260417 </v>
   <v>       0.00260417 </v>
   <v>       0.00260417 </v>
   <v>       0.00260417 </v>
   <v>       0.00260417 </v>
   <v>       0.00260417 </v>
   <v>       0.00260417 </v>
   <v>       0.00260417 </v>
   <v>       0.00260417 </v>
   <v>       0.00260417 </v>
   <v>       0.00260417 </v>
   <v>       0.00260417 </v>
   <v>       0.00260417 </v>
   <v>       0.00260417 </v>
   <v>       0.00260417 </v>
   <v>       0.00260417 </v>
   <v>       0.00260417 </v>
   <v>       0.00260417 </v>
   <v>       0.00260417 </v>
   <v>       0.00260417 </v>
   <v>       0.00260417 </v>
   <v>       0.00260417 </v>
   <v>       0.00260417 </v>
   <v>       0.00260417 </v>
   <v>       0.00260417 </v>
   <v>       0.00260417 </v>
   <v>       0.00260417 </v>
   <v>       0.00260417 </v>
   <v>       0.00260417 </v>
   <v>       0.00260417 </v>
   <v>       0.00260417 </v>
   <v>       0.00260417 </v>
   <v>       0.00260417 </v>
   <v>       0.00260417 </v>
   <v>       0.00260417 </v>
   <v>       0.00260417 </v>
   <v>       0.00260417 </v>
   <v>       0.00260417 </v>
   <v>       0.00260417 </v>
   <v>       0.00260417 </v>
   <v>       0.00260417 </v>
   <v>       0.00260417 </v>
   <v>       0.00260417 </v>
   <v>       0.00260417 </v>
   <v>       0.00260417 </v>
   <v>       0.00260417 </v>
   <v>       0.00260417 </v>
   <v>       0.00260417 </v>
   <v>       0.00260417 </v>
   <v>       0.00260417 </v>
   <v>       0.00260417 </v>
   <v>       0.00260417 </v>
   <v>       0.00260417 </v>
   <v>       0.00260417 </v>
   <v>       0.00260417 </v>
   <v>       0.00260417 </v>
   <v>       0.00260417 </v>
   <v>       0.00260417 </v>
   <v>       0.00260417 </v>
   <v>       0.00260417 </v>
   <v>       0.00260417 </v>
   <v>       0.00260417 </v>
   <v>       0.00260417 </v>
   <v>       0.00260417 </v>
   <v>       0.00260417 </v>
   <v>       0.00260417 </v>
   <v>       0.00260417 </v>
   <v>       0.00260417 </v>
   <v>       0.00260417 </v>
   <v>       0.00260417 </v>
   <v>       0.00260417 </v>
   <v>       0.00260417 </v>
   <v>       0.00260417 </v>
   <v>       0.00260417 </v>
   <v>       0.00260417 </v>
   <v>       0.00260417 </v>
   <v>       0.00260417 </v>
   <v>       0.00260417 </v>
   <v>       0.00260417 </v>
   <v>       0.00260417 </v>
   <v>       0.00260417 </v>
   <v>       0.00260417 </v>
   <v>       0.00260417 </v>
   <v>       0.00260417 </v>
   <v>       0.00260417 </v>
   <v>       0.00260417 </v>
   <v>       0.00260417 </v>
   <v>       0.00260417 </v>
   <v>       0.00260417 </v>
   <v>       0.00260417 </v>
   <v>       0.00260417 </v>
   <v>       0.00260417 </v>
   <v>       0.00260417 </v>
   <v>       0.00260417 </v>
   <v>       0.00260417 </v>
   <v>       0.00260417 </v>
   <v>       0.00260417 </v>
   <v>       0.00260417 </v>
   <v>       0.00260417 </v>
   <v>       0.00260417 </v>
   <v>       0.00260417 </v>
   <v>       0.00260417 </v>
   <v>       0.00260417 </v>
   <v>       0.00260417 </v>
   <v>       0.00260417 </v>
   <v>       0.00260417 </v>
   <v>       0.00260417 </v>
   <v>       0.00260417 </v>
   <v>       0.00260417 </v>
   <v>       0.00260417 </v>
   <v>       0.00260417 </v>
   <v>       0.00260417 </v>
   <v>       0.00260417 </v>
   <v>       0.00260417 </v>
   <v>       0.00260417 </v>
   <v>       0.00260417 </v>
   <v>       0.00260417 </v>
   <v>       0.00260417 </v>
   <v>       0.00260417 </v>
   <v>       0.00260417 </v>
   <v>       0.00260417 </v>
   <v>       0.00260417 </v>
   <v>       0.00260417 </v>
   <v>       0.00260417 </v>
   <v>       0.00260417 </v>
   <v>       0.00260417 </v>
   <v>       0.00260417 </v>
   <v>       0.00260417 </v>
   <v>       0.00260417 </v>
   <v>       0.00260417 </v>
   <v>       0.00260417 </v>
   <v>       0.00260417 </v>
   <v>       0.00260417 </v>
   <v>       0.00260417 </v>
   <v>       0.00260417 </v>
   <v>       0.00260417 </v>
   <v>       0.00260417 </v>
   <v>       0.00260417 </v>
   <v>       0.00260417 </v>
   <v>       0.00260417 </v>
   <v>       0.00260417 </v>
   <v>       0.00260417 </v>
   <v>       0.00260417 </v>
   <v>       0.00260417 </v>
  </varray>
 </kpoints>
 <parameters>
  <separator name="general" >
   <i type="string" name="SYSTEM">St2Nb2O7</i>
   <i type="logical" name="LCOMPAT"> F  </i>
  </separator>
  <separator name="electronic" >
   <i type="string" name="PREC">accura</i>
   <i name="ENMAX">    380.00000000</i>
   <i name="ENAUG">    412.35200000</i>
   <i name="EDIFF">      0.00010000</i>
   <i type="int" name="IALGO">    68</i>
   <i type="int" name="IWAVPR">    10</i>
   <i type="int" name="NBANDS">   204</i>
   <i name="NELECT">    336.00000000</i>
   <i type="int" name="TURBO">     0</i>
   <i type="int" name="IRESTART">     0</i>
   <i type="int" name="NREBOOT">     0</i>
   <i type="int" name="NMIN">     0</i>
   <i name="EREF">      0.00000000</i>
   <separator name="electronic smearing" >
    <i type="int" name="ISMEAR">     0</i>
    <i name="SIGMA">      0.01000000</i>
    <i name="KSPACING">      0.50000000</i>
    <i type="logical" name="KGAMMA"> T  </i>
   </separator>
   <separator name="electronic projectors" >
    <i type="logical" name="LREAL"> T  </i>
    <v name="ROPT">     -0.00025000     -0.00025000     -0.00025000</v>
    <i type="int" name="LMAXPAW">  -100</i>
    <i type="int" name="LMAXMIX">     4</i>
    <i type="logical" name="NLSPLINE"> F  </i>
   </separator>
   <separator name="electronic startup" >
    <i type="int" name="ISTART">     1</i>
    <i type="int" name="ICHARG">     0</i>
    <i type="int" name="INIWAV">     1</i>
   </separator>
   <separator name="electronic spin" >
    <i type="int" name="ISPIN">     1</i>
    <i type="logical" name="LNONCOLLINEAR"> F  </i>
    <v name="MAGMOM">      1.00000000      1.00000000      1.00000000      1.00000000      1.00000000      1.00000000      1.00000000      1.00000000      1.00000000      1.00000000      1.00000000      1.00000000      1.00000000      1.00000000      1.00000000      1.00000000      1.00000000      1.00000000      1.00000000      1.00000000
      1.00000000      1.00000000      1.00000000      1.00000000      1.00000000      1.00000000      1.00000000      1.00000000      1.00000000      1.00000000      1.00000000      1.00000000      1.00000000      1.00000000      1.00000000      1.00000000      1.00000000      1.00000000      1.00000000      1.00000000
      1.00000000      1.00000000      1.00000000      1.00000000</v>
    <i name="NUPDOWN">     -1.00000000</i>
    <i type="logical" name="LSORBIT"> F  </i>
    <v name="SAXIS">      0.00000000      0.00000000      1.00000000</v>
    <i type="logical" name="LSPIRAL"> F  </i>
    <v name="QSPIRAL">      0.00000000      0.00000000      0.00000000</v>
    <i type="logical" name="LZEROZ"> F  </i>
   </separator>
   <separator name="electronic exchange-correlation" >
    <i type="logical" name="LASPH"> F  </i>
    <i type="logical" name="LMETAGGA"> F  </i>
   </separator>
   <separator name="electronic convergence" >
    <i type="int" name="NELM">    60</i>
    <i type="int" name="NELMDL">     0</i>
    <i type="int" name="NELMIN">     2</i>
    <i name="ENINI">    380.00000000</i>
    <separator name="electronic convergence detail" >
     <i type="logical" name="LDIAG"> T  </i>
     <i type="logical" name="LSUBROT"> F  </i>
     <i name="WEIMIN">      0.00000000</i>
     <i name="EBREAK">      0.00000012</i>
     <i name="DEPER">      0.30000000</i>
     <i type="int" name="NRMM">     4</i>
     <i name="TIME">      0.40000000</i>
    </separator>
   </separator>
   <separator name="electronic mixer" >
    <i name="AMIX">      0.40000000</i>
    <i name="BMIX">      1.00000000</i>
    <i name="AMIN">      0.10000000</i>
    <i name="AMIX_MAG">      1.60000000</i>
    <i name="BMIX_MAG">      1.00000000</i>
    <separator name="electronic mixer details" >
     <i type="int" name="IMIX">     4</i>
     <i type="logical" name="MIXFIRST"> F  </i>
     <i type="int" name="MAXMIX">   -45</i>
     <i name="WC">    100.00000000</i>
     <i type="int" name="INIMIX">     1</i>
     <i type="int" name="MIXPRE">     1</i>
     <i type="int" name="MREMOVE">     5</i>
    </separator>
   </separator>
   <separator name="electronic dipolcorrection" >
    <i type="logical" name="LDIPOL"> F  </i>
    <i type="logical" name="LMONO"> F  </i>
    <i type="int" name="IDIPOL">     0</i>
    <i name="EPSILON">      1.00000000</i>
    <v name="DIPOL">   -100.00000000   -100.00000000   -100.00000000</v>
    <i name="EFIELD">      0.00000000</i>
   </separator>
  </separator>
  <separator name="grids" >
   <i type="int" name="NGX">    28</i>
   <i type="int" name="NGY">   180</i>
   <i type="int" name="NGZ">    40</i>
   <i type="int" name="NGXF">    56</i>
   <i type="int" name="NGYF">   360</i>
   <i type="int" name="NGZF">    80</i>
   <i type="logical" name="ADDGRID"> F  </i>
  </separator>
  <separator name="ionic" >
   <i type="int" name="NSW">     0</i>
   <i type="int" name="IBRION">    -1</i>
   <i type="int" name="MDALGO">     0</i>
   <i type="int" name="ISIF">     2</i>
   <i name="PSTRESS">      0.00000000</i>
   <i name="EDIFFG">      0.00100000</i>
   <i type="int" name="NFREE">     0</i>
   <i name="POTIM">      0.50000000</i>
   <i name="SMASS">     -3.00000000</i>
   <i name="SCALEE">      1.00000000</i>
  </separator>
  <separator name="ionic md" >
   <i name="TEBEG">      0.00010000</i>
   <i name="TEEND">      0.00010000</i>
   <i type="int" name="NBLOCK">     1</i>
   <i type="int" name="KBLOCK">     1</i>
   <i type="int" name="NPACO">   256</i>
   <i name="APACO">     16.00000000</i>
  </separator>
  <separator name="symmetry" >
   <i type="int" name="ISYM">     2</i>
   <i name="SYMPREC">      0.00001000</i>
  </separator>
  <separator name="dos" >
   <i type="int" name="LORBIT">     0</i>
   <v name="RWIGS">     -1.00000000     -1.00000000     -1.00000000</v>
   <i type="int" name="NEDOS">   301</i>
   <i name="EMIN">     10.00000000</i>
   <i name="EMAX">    -10.00000000</i>
   <i name="EFERMI">      0.00000000</i>
  </separator>
  <separator name="writing" >
   <i type="int" name="NWRITE">     2</i>
   <i type="logical" name="LWAVE"> T  </i>
   <i type="logical" name="LDOWNSAMPLE"> F  </i>
   <i type="logical" name="LCHARG"> T  </i>
   <i type="logical" name="LPARD"> F  </i>
   <i type="logical" name="LVTOT"> F  </i>
   <i type="logical" name="LVHAR"> F  </i>
   <i type="logical" name="LELF"> F  </i>
   <i type="logical" name="LOPTICS"> F  </i>
   <v name="STM">      0.00000000      0.00000000      0.00000000      0.00000000      0.00000000      0.00000000      0.00000000</v>
  </separator>
  <separator name="performance" >
   <i type="int" name="NPAR">     4</i>
   <i type="int" name="NSIM">     4</i>
   <i type="int" name="NBLK">    -1</i>
   <i type="logical" name="LPLANE"> T  </i>
   <i type="logical" name="LSCALAPACK"> T  </i>
   <i type="logical" name="LSCAAWARE"> F  </i>
   <i type="logical" name="LSCALU"> F  </i>
   <i type="logical" name="LASYNC"> F  </i>
   <i type="logical" name="LORBITALREAL"> F  </i>
  </separator>
  <separator name="miscellaneous" >
   <i type="int" name="IDIOT">     3</i>
   <i type="int" name="ISPECIAL">     0</i>
   <i type="logical" name="LMUSIC"> F  </i>
   <v name="POMASS">     87.62000000     92.00000000     16.00000000</v>
   <v name="DARWINR">      0.00000000      0.00000000      0.00000000</v>
   <v name="DARWINV">      1.00000000      1.00000000      1.00000000</v>
   <i type="logical" name="LCORR"> T  </i>
  </separator>
  <i type="logical" name="GGA_COMPAT"> T  </i>
  <i type="logical" name="LBERRY"> F  </i>
  <i type="int" name="ICORELEVEL">     0</i>
  <i type="logical" name="LDAU"> F  </i>
  <i type="int" name="I_CONSTRAINED_M">     0</i>
  <separator name="electronic exchange-correlation" >
   <i type="string" name="GGA">--</i>
   <i type="int" name="VOSKOWN">     0</i>
   <i type="logical" name="LHFCALC"> F  </i>
   <i type="string" name="PRECFOCK"></i>
   <i type="logical" name="LSYMGRAD"> F  </i>
   <i type="logical" name="LHFONE"> F  </i>
   <i type="logical" name="LRHFCALC"> F  </i>
   <i type="logical" name="LTHOMAS"> F  </i>
   <i type="logical" name="LMODELHF"> F  </i>
   <i name="ENCUT4O">     -1.00000000</i>
   <i type="int" name="EXXOEP">     0</i>
   <i type="int" name="FOURORBIT">     0</i>
   <i name="AEXX">      0.00000000</i>
   <i name="HFALPHA">      0.00000000</i>
   <i name="MCALPHA">      0.00000000</i>
   <i name="ALDAX">      1.00000000</i>
   <i name="AGGAX">      1.00000000</i>
   <i name="ALDAC">      1.00000000</i>
   <i name="AGGAC">      1.00000000</i>
   <i type="int" name="NKREDX">     1</i>
   <i type="int" name="NKREDY">     1</i>
   <i type="int" name="NKREDZ">     1</i>
   <i type="logical" name="SHIFTRED"> F  </i>
   <i type="logical" name="ODDONLY"> F  </i>
   <i type="logical" name="EVENONLY"> F  </i>
   <i type="int" name="LMAXFOCK">     0</i>
   <i type="int" name="NMAXFOCKAE">     0</i>
   <i type="logical" name="LFOCKAEDFT"> F  </i>
   <i name="HFSCREEN">      0.00000000</i>
   <i name="HFSCREENC">      0.00000000</i>
   <i type="int" name="NBANDSGWLOW">     0</i>
  </separator>
  <separator name="vdW DFT" >
   <i type="logical" name="LUSE_VDW"> F  </i>
   <i name="Zab_VDW">     -0.84910000</i>
   <i name="PARAM1">      0.12340000</i>
   <i name="PARAM2">      1.00000000</i>
   <i name="PARAM3">      0.00000000</i>
  </separator>
  <separator name="model GW" >
   <i type="int" name="MODEL_GW">     0</i>
   <i name="MODEL_EPS0">      8.68597279</i>
   <i name="MODEL_ALPHA">      1.00000000</i>
  </separator>
  <separator name="linear response parameters" >
   <i type="logical" name="LEPSILON"> F  </i>
   <i type="logical" name="LRPA"> F  </i>
   <i type="logical" name="LNABLA"> F  </i>
   <i type="logical" name="LVEL"> F  </i>
   <i type="int" name="KINTER">     0</i>
   <i name="CSHIFT">      0.10000000</i>
   <i name="OMEGAMAX">     -1.00000000</i>
   <i name="DEG_THRESHOLD">      0.00200000</i>
   <i name="RTIME">     -0.10000000</i>
   <i name="WPLASMAI">      0.00000000</i>
   <v name="DFIELD">      0.00000000      0.00000000      0.00000000</v>
   <v name="WPLASMA">      0.00000000      0.00000000      0.00000000      0.00000000      0.00000000      0.00000000      0.00000000      0.00000000      0.00000000</v>
  </separator>
  <separator name="orbital magnetization" >
   <i type="logical" name="NUCIND"> F  </i>
   <v name="MAGPOS">      0.00000000      0.00000000      0.00000000</v>
   <i type="logical" name="LNICSALL"> T  </i>
   <i type="logical" name="ORBITALMAG"> F  </i>
   <i type="logical" name="LMAGBLOCH"> F  </i>
   <i type="logical" name="LCHIMAG"> F  </i>
   <i type="logical" name="LGAUGE"> T  </i>
   <i type="int" name="MAGATOM">     0</i>
   <v name="MAGDIPOL">      0.00000000      0.00000000      0.00000000</v>
   <v name="AVECCONST">      0.00000000      0.00000000      0.00000000</v>
  </separator>
  <separator name="response functions" >
   <i type="logical" name="LADDER"> F  </i>
   <i type="logical" name="LRPAFORCE"> F  </i>
   <i type="logical" name="LFXC"> F  </i>
   <i type="logical" name="LHARTREE"> T  </i>
   <i type="int" name="IBSE">     0</i>
   <v type="int" name="KPOINT">    -1     0     0     0</v>
   <i type="logical" name="LTCTE"> F  </i>
   <i type="logical" name="LTETE"> F  </i>
   <i type="logical" name="LTRIPLET"> F  </i>
   <i type="logical" name="LFXCEPS"> F  </i>
   <i type="logical" name="LFXHEG"> F  </i>
   <i type="int" name="NATURALO">     2</i>
   <i type="logical" name="L2ORDER"> F  </i>
   <i type="logical" name="LMP2LT"> F  </i>
   <i type="logical" name="LUSEW"> F  </i>
   <i name="ENCUTGW">     -2.00000000</i>
   <i name="ENCUTGWSOFT">     -2.00000000</i>
   <i name="ENCUTLF">     -1.00000000</i>
   <i type="int" name="LMAXMP2">    -1</i>
   <i name="SCISSOR">      0.00000000</i>
   <i type="int" name="NOMEGA">     0</i>
   <i type="int" name="NOMEGAR">     0</i>
   <i type="int" name="NBANDSGW">    -1</i>
   <i type="int" name="NBANDSO">    -1</i>
   <i type="int" name="NBANDSV">    -1</i>
   <i type="int" name="NELM">     1</i>
   <i type="int" name="NELMHF">     1</i>
   <i type="int" name="DIM">     3</i>
   <i type="int" name="ANTIRES">     0</i>
   <i name="OMEGAMAX">    -30.00000000</i>
   <i name="OMEGAMIN">    -30.00000000</i>
   <i name="OMEGATL">   -200.00000000</i>
   <i type="int" name="OMEGAGRID">   140</i>
   <i name="CSHIFT">     -0.10000000</i>
   <i type="logical" name="SELFENERGY"> F  </i>
   <i type="logical" name="LSPECTRAL"> F  </i>
   <i type="logical" name="LSPECTRALGW"> F  </i>
   <i type="logical" name="LSINGLES"> F  </i>
   <i type="logical" name="LFERMIGW"> F  </i>
   <i type="logical" name="ODDONLYGW"> F  </i>
   <i type="logical" name="EVENONLYGW"> F  </i>
   <i type="int" name="NKREDLFX">     1</i>
   <i type="int" name="NKREDLFY">     1</i>
   <i type="int" name="NKREDLFZ">     1</i>
   <i type="int" name="MAXMEM">  2800</i>
   <i type="int" name="TELESCOPE">     0</i>
   <i type="int" name="TAUPAR">     1</i>
   <i type="int" name="OMEGAPAR">    -1</i>
   <i name="LAMBDA">      1.00000000</i>
  </separator>
  <separator name="External order field" >
   <i name="OFIELD_KAPPA">      0.00000000</i>
   <v name="OFIELD_K">      0.00000000      0.00000000      0.00000000</v>
   <i name="OFIELD_Q6_NEAR">      0.00000000</i>
   <i name="OFIELD_Q6_FAR">      0.00000000</i>
   <i name="OFIELD_A">      0.00000000</i>
  </separator>
 </parameters>
 <atominfo>
  <atoms>      44 </atoms>
  <types>       3 </types>
  <array name="atoms" >
   <dimension dim="1">ion</dimension>
   <field type="string">element</field>
   <field type="int">atomtype</field>
   <set>
    <rc><c>Sr</c><c>   1</c></rc>
    <rc><c>Sr</c><c>   1</c></rc>
    <rc><c>Sr</c><c>   1</c></rc>
    <rc><c>Sr</c><c>   1</c></rc>
    <rc><c>Sr</c><c>   1</c></rc>
    <rc><c>Sr</c><c>   1</c></rc>
    <rc><c>Sr</c><c>   1</c></rc>
    <rc><c>Sr</c><c>   1</c></rc>
    <rc><c>Nb</c><c>   2</c></rc>
    <rc><c>Nb</c><c>   2</c></rc>
    <rc><c>Nb</c><c>   2</c></rc>
    <rc><c>Nb</c><c>   2</c></rc>
    <rc><c>Nb</c><c>   2</c></rc>
    <rc><c>Nb</c><c>   2</c></rc>
    <rc><c>Nb</c><c>   2</c></rc>
    <rc><c>Nb</c><c>   2</c></rc>
    <rc><c>O </c><c>   3</c></rc>
    <rc><c>O </c><c>   3</c></rc>
    <rc><c>O </c><c>   3</c></rc>
    <rc><c>O </c><c>   3</c></rc>
    <rc><c>O </c><c>   3</c></rc>
    <rc><c>O </c><c>   3</c></rc>
    <rc><c>O </c><c>   3</c></rc>
    <rc><c>O </c><c>   3</c></rc>
    <rc><c>O </c><c>   3</c></rc>
    <rc><c>O </c><c>   3</c></rc>
    <rc><c>O </c><c>   3</c></rc>
    <rc><c>O </c><c>   3</c></rc>
    <rc><c>O </c><c>   3</c></rc>
    <rc><c>O </c><c>   3</c></rc>
    <rc><c>O </c><c>   3</c></rc>
    <rc><c>O </c><c>   3</c></rc>
    <rc><c>O </c><c>   3</c></rc>
    <rc><c>O </c><c>   3</c></rc>
    <rc><c>O </c><c>   3</c></rc>
    <rc><c>O </c><c>   3</c></rc>
    <rc><c>O </c><c>   3</c></rc>
    <rc><c>O </c><c>   3</c></rc>
    <rc><c>O </c><c>   3</c></rc>
    <rc><c>O </c><c>   3</c></rc>
    <rc><c>O </c><c>   3</c></rc>
    <rc><c>O </c><c>   3</c></rc>
    <rc><c>O </c><c>   3</c></rc>
    <rc><c>O </c><c>   3</c></rc>
   </set>
  </array>
  <array name="atomtypes" >
   <dimension dim="1">type</dimension>
   <field type="int">atomspertype</field>
   <field type="string">element</field>
   <field>mass</field>
   <field>valence</field>
   <field type="string">pseudopotential</field>
   <set>
    <rc><c>   8</c><c>Sr</c><c>     87.62000000</c><c>     10.00000000</c><c>  PAW_PBE Sr_sv 07Sep2000               </c></rc>
    <rc><c>   8</c><c>Nb</c><c>     92.00000000</c><c>     11.00000000</c><c>  PAW_PBE Nb_pv 08Apr2002               </c></rc>
    <rc><c>  28</c><c>O </c><c>     16.00000000</c><c>      6.00000000</c><c>  PAW_PBE O_s 07Sep2000                 </c></rc>
   </set>
  </array>
 </atominfo>
 <structure name="initialpos" >
  <crystal>
   <varray name="basis" >
    <v>       4.00260054       0.00000000       0.00000000 </v>
    <v>       0.00000000      27.33103009       0.00000000 </v>
    <v>       0.00000000       0.00000000       5.82266281 </v>
   </varray>
   <i name="volume">    636.97133801 </i>
   <varray name="rec_basis" >
    <v>       0.24983757       0.00000000       0.00000000 </v>
    <v>       0.00000000       0.03658845       0.00000000 </v>
    <v>       0.00000000       0.00000000       0.17174273 </v>
   </varray>
  </crystal>
  <varray name="positions" >
   <v>       0.00000000       0.29117294       0.16898472 </v>
   <v>       0.00000000       0.70882706       0.66898474 </v>
   <v>       0.50000000       0.79117294       0.16898472 </v>
   <v>       0.50000000       0.20882706       0.66898474 </v>
   <v>       0.00000000       0.44922753       0.73569686 </v>
   <v>       0.00000000       0.55077247       0.23569686 </v>
   <v>       0.50000000       0.94922753       0.73569686 </v>
   <v>       0.50000000       0.05077247       0.23569686 </v>
   <v>       0.50000000       0.33886854       0.70592084 </v>
   <v>       0.50000000       0.66113146       0.20592084 </v>
   <v>       0.00000000       0.83886854       0.70592084 </v>
   <v>       0.00000000       0.16113146       0.20592084 </v>
   <v>       0.50000000       0.44147243       0.23855770 </v>
   <v>       0.50000000       0.55852757       0.73855771 </v>
   <v>       0.00000000       0.94147243       0.23855770 </v>
   <v>       0.00000000       0.05852757       0.73855771 </v>
   <v>       0.50000000       0.28524276       0.91582011 </v>
   <v>       0.50000000       0.71475721       0.41582011 </v>
   <v>       0.00000000       0.78524279       0.91582011 </v>
   <v>       0.00000000       0.21475724       0.41582011 </v>
   <v>       0.50000000       0.30132950       0.44141213 </v>
   <v>       0.50000000       0.69867050       0.94141216 </v>
   <v>       0.00000000       0.80132950       0.44141213 </v>
   <v>       0.00000000       0.19867050       0.94141216 </v>
   <v>       0.50000000       0.38856001       0.04034251 </v>
   <v>       0.50000000       0.61143999       0.54034248 </v>
   <v>       0.00000000       0.88856001       0.04034251 </v>
   <v>       0.00000000       0.11143999       0.54034248 </v>
   <v>       0.50000000       0.40800519       0.54803473 </v>
   <v>       0.50000000       0.59199484       0.04803473 </v>
   <v>       0.00000000       0.90800516       0.54803473 </v>
   <v>       0.00000000       0.09199481       0.04803473 </v>
   <v>       0.50000000       0.49128547       0.99263420 </v>
   <v>       0.50000000       0.50871456       0.49263420 </v>
   <v>       0.00000000       0.99128544       0.99263420 </v>
   <v>       0.00000000       0.00871453       0.49263420 </v>
   <v>       0.00000000       0.34948932       0.74456409 </v>
   <v>       0.00000000       0.65051071       0.24456409 </v>
   <v>       0.50000000       0.84948929       0.74456409 </v>
   <v>       0.50000000       0.15051068       0.24456409 </v>
   <v>       0.00000000       0.45153464       0.27233217 </v>
   <v>       0.00000000       0.54846533       0.77233217 </v>
   <v>       0.50000000       0.95153467       0.27233217 </v>
   <v>       0.50000000       0.04846536       0.77233217 </v>
  </varray>
 </structure>
 <calculation>
  <scstep>
   <time name="dav">  872.09  871.86</time>
   <time name="total">  909.86  909.65</time>
   <energy>
    <i name="alphaZ">   1927.57100551 </i>
    <i name="ewald"> -20504.43396661 </i>
    <i name="hartreedc">  -6877.90894617 </i>
    <i name="XCdc">   1282.94880276 </i>
    <i name="pawpsdc">  53114.74757262 </i>
    <i name="pawaedc"> -53099.64272554 </i>
    <i name="eentropy">     -0.00000000 </i>
    <i name="bandstr">  -3398.73515766 </i>
    <i name="atom">  27197.44331604 </i>
    <i name="e_fr_energy">   -358.01009905 </i>
    <i name="e_wo_entrp">   -358.01009905 </i>
    <i name="e_0_energy">   -358.01009905 </i>
   </energy>
  </scstep>
  <scstep>
   <time name="diag">  166.80  166.78</time>
   <time name="diis">  269.93  269.79</time>
   <time name="orth">   28.69   28.67</time>
   <time name="total">  465.73  465.55</time>
   <energy>
    <i name="alphaZ">   1927.57100551 </i>
    <i name="ewald"> -20504.43396661 </i>
    <i name="hartreedc">  -6877.90860884 </i>
    <i name="XCdc">   1282.94870315 </i>
    <i name="pawpsdc">  53114.75760941 </i>
    <i name="pawaedc"> -53099.65023822 </i>
    <i name="eentropy">     -0.00000000 </i>
    <i name="bandstr">  -3398.73792289 </i>
    <i name="atom">  27197.44331604 </i>
    <i name="e_fr_energy">   -358.01010244 </i>
    <i name="e_wo_entrp">   -358.01010244 </i>
    <i name="e_0_energy">   -358.01010244 </i>
   </energy>
  </scstep>
  <structure>
   <crystal>
    <varray name="basis" >
     <v>       4.00260054       0.00000000       0.00000000 </v>
     <v>       0.00000000      27.33103009       0.00000000 </v>
     <v>       0.00000000       0.00000000       5.82266281 </v>
    </varray>
    <i name="volume">    636.97133801 </i>
    <varray name="rec_basis" >
     <v>       0.24983757       0.00000000       0.00000000 </v>
     <v>       0.00000000       0.03658845       0.00000000 </v>
     <v>       0.00000000       0.00000000       0.17174273 </v>
    </varray>
   </crystal>
   <varray name="positions" >
    <v>       0.00000000       0.29117294       0.16898472 </v>
    <v>       0.00000000       0.70882706       0.66898474 </v>
    <v>       0.50000000       0.79117294       0.16898472 </v>
    <v>       0.50000000       0.20882706       0.66898474 </v>
    <v>       0.00000000       0.44922753       0.73569686 </v>
    <v>       0.00000000       0.55077247       0.23569686 </v>
    <v>       0.50000000       0.94922753       0.73569686 </v>
    <v>       0.50000000       0.05077247       0.23569686 </v>
    <v>       0.50000000       0.33886854       0.70592084 </v>
    <v>       0.50000000       0.66113146       0.20592084 </v>
    <v>       0.00000000       0.83886854       0.70592084 </v>
    <v>       0.00000000       0.16113146       0.20592084 </v>
    <v>       0.50000000       0.44147243       0.23855770 </v>
    <v>       0.50000000       0.55852757       0.73855771 </v>
    <v>       0.00000000       0.94147243       0.23855770 </v>
    <v>       0.00000000       0.05852757       0.73855771 </v>
    <v>       0.50000000       0.28524276       0.91582011 </v>
    <v>       0.50000000       0.71475721       0.41582011 </v>
    <v>       0.00000000       0.78524279       0.91582011 </v>
    <v>       0.00000000       0.21475724       0.41582011 </v>
    <v>       0.50000000       0.30132950       0.44141213 </v>
    <v>       0.50000000       0.69867050       0.94141216 </v>
    <v>       0.00000000       0.80132950       0.44141213 </v>
    <v>       0.00000000       0.19867050       0.94141216 </v>
    <v>       0.50000000       0.38856001       0.04034251 </v>
    <v>       0.50000000       0.61143999       0.54034248 </v>
    <v>       0.00000000       0.88856001       0.04034251 </v>
    <v>       0.00000000       0.11143999       0.54034248 </v>
    <v>       0.50000000       0.40800519       0.54803473 </v>
    <v>       0.50000000       0.59199484       0.04803473 </v>
    <v>       0.00000000       0.90800516       0.54803473 </v>
    <v>       0.00000000       0.09199481       0.04803473 </v>
    <v>       0.50000000       0.49128547       0.99263420 </v>
    <v>       0.50000000       0.50871456       0.49263420 </v>
    <v>       0.00000000       0.99128544       0.99263420 </v>
    <v>       0.00000000       0.00871453       0.49263420 </v>
    <v>       0.00000000       0.34948932       0.74456409 </v>
    <v>       0.00000000       0.65051071       0.24456409 </v>
    <v>       0.50000000       0.84948929       0.74456409 </v>
    <v>       0.50000000       0.15051068       0.24456409 </v>
    <v>       0.00000000       0.45153464       0.27233217 </v>
    <v>       0.00000000       0.54846533       0.77233217 </v>
    <v>       0.50000000       0.95153467       0.27233217 </v>
    <v>       0.50000000       0.04846536       0.77233217 </v>
   </varray>
  </structure>
  <varray name="forces" >
   <v>      -0.00000000      -0.00701187       0.00790928 </v>
   <v>      -0.00000000       0.00701187       0.00790928 </v>
   <v>       0.00000000      -0.00701187       0.00790928 </v>
   <v>      -0.00000000       0.00701187       0.00790928 </v>
   <v>      -0.00000000      -0.01584990      -0.00281652 </v>
   <v>      -0.00000000       0.01584990      -0.00281652 </v>
   <v>      -0.00000000      -0.01584990      -0.00281652 </v>
   <v>      -0.00000000       0.01584990      -0.00281652 </v>
   <v>       0.00000000       0.00673836       0.02073500 </v>
   <v>      -0.00000000      -0.00673836       0.02073500 </v>
   <v>      -0.00000000       0.00673836       0.02073500 </v>
   <v>      -0.00000000      -0.00673836       0.02073500 </v>
   <v>      -0.00000000      -0.00462561      -0.00687341 </v>
   <v>      -0.00000000       0.00462561      -0.00687341 </v>
   <v>      -0.00000000      -0.00462561      -0.00687341 </v>
   <v>      -0.00000000       0.00462561      -0.00687341 </v>
   <v>       0.00000000      -0.00260895       0.00896031 </v>
   <v>       0.00000000       0.00260895       0.00896031 </v>
   <v>      -0.00000000      -0.00260895       0.00896031 </v>
   <v>      -0.00000000       0.00260895       0.00896031 </v>
   <v>       0.00000000      -0.01218535      -0.00198418 </v>
   <v>      -0.00000000       0.01218535      -0.00198418 </v>
   <v>      -0.00000000      -0.01218535      -0.00198418 </v>
   <v>      -0.00000000       0.01218535      -0.00198418 </v>
   <v>       0.00000000       0.00946889      -0.00390465 </v>
   <v>       0.00000000      -0.00946889      -0.00390465 </v>
   <v>      -0.00000000       0.00946889      -0.00390465 </v>
   <v>      -0.00000000      -0.00946889      -0.00390465 </v>
   <v>      -0.00000000      -0.00317095       0.00604277 </v>
   <v>       0.00000000       0.00317095       0.00604277 </v>
   <v>      -0.00000000      -0.00317095       0.00604277 </v>
   <v>      -0.00000000       0.00317095       0.00604277 </v>
   <v>      -0.00000000       0.01559858      -0.00843725 </v>
   <v>      -0.00000000      -0.01559858      -0.00843725 </v>
   <v>      -0.00000000       0.01559858      -0.00843725 </v>
   <v>      -0.00000000      -0.01559858      -0.00843725 </v>
   <v>      -0.00000000       0.00837159      -0.00801320 </v>
   <v>      -0.00000000      -0.00837159      -0.00801320 </v>
   <v>       0.00000000       0.00837159      -0.00801320 </v>
   <v>       0.00000000      -0.00837159      -0.00801320 </v>
   <v>      -0.00000000       0.00445106      -0.01161815 </v>
   <v>      -0.00000000      -0.00445106      -0.01161815 </v>
   <v>      -0.00000000       0.00445106      -0.01161815 </v>
   <v>      -0.00000000      -0.00445106      -0.01161815 </v>
  </varray>
  <varray name="stress" >
   <v>      -0.83496466       0.00000000       0.00000000 </v>
   <v>       0.00000000      -0.03649673       0.00000000 </v>
   <v>       0.00000000       0.00000000       0.45267939 </v>
  </varray>
  <energy>
   <i name="e_fr_energy">   -358.01010244 </i>
   <i name="e_wo_entrp">   -358.01010244 </i>
   <i name="e_0_energy">     -0.00000000 </i>
  </energy>
  <time name="totalsc"> 2367.92 2367.61</time>
  <eigenvalues>
   <array>
    <dimension dim="1">band</dimension>
    <dimension dim="2">kpoint</dimension>
    <dimension dim="3">spin</dimension>
    <field>eigene</field>
    <field>occ</field>
    <set>
     <set comment="spin 1">
      <set comment="kpoint 1">
       <r>  -30.8425    1.0000 </r>
       <r>  -30.8425    1.0000 </r>
       <r>  -30.8276    1.0000 </r>
       <r>  -30.8276    1.0000 </r>
       <r>  -30.6955    1.0000 </r>
       <r>  -30.6955    1.0000 </r>
       <r>  -30.6725    1.0000 </r>
       <r>  -30.6724    1.0000 </r>
       <r>  -29.3268    1.0000 </r>
       <r>  -29.3268    1.0000 </r>
       <r>  -29.3243    1.0000 </r>
       <r>  -29.3243    1.0000 </r>
       <r>  -29.2313    1.0000 </r>
       <r>  -29.2309    1.0000 </r>
       <r>  -29.2307    1.0000 </r>
       <r>  -29.2303    1.0000 </r>
       <r>  -29.2137    1.0000 </r>
       <r>  -29.2134    1.0000 </r>
       <r>  -29.2112    1.0000 </r>
       <r>  -29.2111    1.0000 </r>
       <r>  -29.1861    1.0000 </r>
       <r>  -29.1861    1.0000 </r>
       <r>  -29.1845    1.0000 </r>
       <r>  -29.1845    1.0000 </r>
       <r>  -29.1209    1.0000 </r>
       <r>  -29.1203    1.0000 </r>
       <r>  -29.1187    1.0000 </r>
       <r>  -29.1182    1.0000 </r>
       <r>  -29.0456    1.0000 </r>
       <r>  -29.0455    1.0000 </r>
       <r>  -29.0455    1.0000 </r>
       <r>  -29.0455    1.0000 </r>
       <r>  -15.4385    1.0000 </r>
       <r>  -15.4367    1.0000 </r>
       <r>  -15.4196    1.0000 </r>
       <r>  -15.4112    1.0000 </r>
       <r>  -15.2163    1.0000 </r>
       <r>  -15.1755    1.0000 </r>
       <r>  -15.1200    1.0000 </r>
       <r>  -15.0802    1.0000 </r>
       <r>  -14.8869    1.0000 </r>
       <r>  -14.8853    1.0000 </r>
       <r>  -14.7625    1.0000 </r>
       <r>  -14.7345    1.0000 </r>
       <r>  -14.7033    1.0000 </r>
       <r>  -14.6316    1.0000 </r>
       <r>  -14.5724    1.0000 </r>
       <r>  -14.5697    1.0000 </r>
       <r>  -14.4772    1.0000 </r>
       <r>  -14.4706    1.0000 </r>
       <r>  -14.4484    1.0000 </r>
       <r>  -14.3749    1.0000 </r>
       <r>  -14.3712    1.0000 </r>
       <r>  -14.3236    1.0000 </r>
       <r>  -14.3145    1.0000 </r>
       <r>  -14.2503    1.0000 </r>
       <r>  -14.2024    1.0000 </r>
       <r>  -14.2009    1.0000 </r>
       <r>  -14.1541    1.0000 </r>
       <r>  -14.1294    1.0000 </r>
       <r>  -12.8376    1.0000 </r>
       <r>  -12.8349    1.0000 </r>
       <r>  -12.8026    1.0000 </r>
       <r>  -12.8026    1.0000 </r>
       <r>  -12.8009    1.0000 </r>
       <r>  -12.7862    1.0000 </r>
       <r>  -12.7700    1.0000 </r>
       <r>  -12.7678    1.0000 </r>
       <r>  -12.6999    1.0000 </r>
       <r>  -12.6819    1.0000 </r>
       <r>  -12.6580    1.0000 </r>
       <r>  -12.6576    1.0000 </r>
       <r>  -12.6006    1.0000 </r>
       <r>  -12.6001    1.0000 </r>
       <r>  -12.5767    1.0000 </r>
       <r>  -12.5761    1.0000 </r>
       <r>  -12.3926    1.0000 </r>
       <r>  -12.3797    1.0000 </r>
       <r>  -12.3738    1.0000 </r>
       <r>  -12.3465    1.0000 </r>
       <r>  -12.3394    1.0000 </r>
       <r>  -12.3219    1.0000 </r>
       <r>  -11.9260    1.0000 </r>
       <r>  -11.9257    1.0000 </r>
       <r>   -2.5839    1.0000 </r>
       <r>   -2.5697    1.0000 </r>
       <r>   -2.5674    1.0000 </r>
       <r>   -2.5628    1.0000 </r>
       <r>   -2.4371    1.0000 </r>
       <r>   -2.4324    1.0000 </r>
       <r>   -2.0500    1.0000 </r>
       <r>   -2.0197    1.0000 </r>
       <r>   -1.9794    1.0000 </r>
       <r>   -1.9345    1.0000 </r>
       <r>   -1.8806    1.0000 </r>
       <r>   -1.8718    1.0000 </r>
       <r>   -1.4981    1.0000 </r>
       <r>   -1.4926    1.0000 </r>
       <r>   -1.4667    1.0000 </r>
       <r>   -1.4020    1.0000 </r>
       <r>   -1.3194    1.0000 </r>
       <r>   -1.3005    1.0000 </r>
       <r>   -1.2414    1.0000 </r>
       <r>   -1.2397    1.0000 </r>
       <r>   -1.2301    1.0000 </r>
       <r>   -1.2029    1.0000 </r>
       <r>   -1.1464    1.0000 </r>
       <r>   -1.1110    1.0000 </r>
       <r>   -0.9148    1.0000 </r>
       <r>   -0.8644    1.0000 </r>
       <r>   -0.8401    1.0000 </r>
       <r>   -0.8293    1.0000 </r>
       <r>   -0.7720    1.0000 </r>
       <r>   -0.7291    1.0000 </r>
       <r>   -0.7192    1.0000 </r>
       <r>   -0.6149    1.0000 </r>
       <r>   -0.6022    1.0000 </r>
       <r>   -0.5353    1.0000 </r>
       <r>   -0.4886    1.0000 </r>
       <r>   -0.4393    1.0000 </r>
       <r>   -0.3612    1.0000 </r>
       <r>   -0.3014    1.0000 </r>
       <r>   -0.2682    1.0000 </r>
       <r>   -0.2313    1.0000 </r>
       <r>   -0.1787    1.0000 </r>
       <r>   -0.1629    1.0000 </r>
       <r>   -0.1491    1.0000 </r>
       <r>   -0.1369    1.0000 </r>
       <r>   -0.1301    1.0000 </r>
       <r>   -0.0957    1.0000 </r>
       <r>   -0.0677    1.0000 </r>
       <r>   -0.0605    1.0000 </r>
       <r>   -0.0455    1.0000 </r>
       <r>   -0.0344    1.0000 </r>
       <r>   -0.0233    1.0000 </r>
       <r>   -0.0091    1.0000 </r>
       <r>    0.0498    1.0000 </r>
       <r>    0.0732    1.0000 </r>
       <r>    0.1357    1.0000 </r>
       <r>    0.1494    1.0000 </r>
       <r>    0.3040    1.0000 </r>
       <r>    0.3116    1.0000 </r>
       <r>    0.3159    1.0000 </r>
       <r>    0.3438    1.0000 </r>
       <r>    0.4767    1.0000 </r>
       <r>    0.4921    1.0000 </r>
       <r>    0.5167    1.0000 </r>
       <r>    0.5347    1.0000 </r>
       <r>    0.6883    1.0000 </r>
       <r>    0.7000    1.0000 </r>
       <r>    0.7534    1.0000 </r>
       <r>    0.7735    1.0000 </r>
       <r>    0.7924    1.0000 </r>
       <r>    0.8254    1.0000 </r>
       <r>    0.8425    1.0000 </r>
       <r>    0.8647    1.0000 </r>
       <r>    0.8688    1.0000 </r>
       <r>    0.9308    1.0000 </r>
       <r>    1.0492    1.0000 </r>
       <r>    1.0979    1.0000 </r>
       <r>    1.1302    1.0000 </r>
       <r>    1.1481    1.0000 </r>
       <r>    1.1629    1.0000 </r>
       <r>    1.2474    1.0000 </r>
       <r>    1.2637    1.0000 </r>
       <r>    1.2686    1.0000 </r>
       <r>    1.4475    1.0000 </r>
       <r>    1.4569    1.0000 </r>
       <r>    4.3292    0.0000 </r>
       <r>    4.3775    0.0000 </r>
       <r>    4.4542    0.0000 </r>
       <r>    4.4856    0.0000 </r>
       <r>    4.9420    0.0000 </r>
       <r>    5.0467    0.0000 </r>
       <r>    5.1762    0.0000 </r>
       <r>    5.2263    0.0000 </r>
       <r>    5.2522    0.0000 </r>
       <r>    5.2781    0.0000 </r>
       <r>    5.4912    0.0000 </r>
       <r>    5.5077    0.0000 </r>
       <r>    5.5715    0.0000 </r>
       <r>    5.6913    0.0000 </r>
       <r>    5.7152    0.0000 </r>
       <r>    5.7220    0.0000 </r>
       <r>    5.7770    0.0000 </r>
       <r>    5.9199    0.0000 </r>
       <r>    6.0013    0.0000 </r>
       <r>    6.0093    0.0000 </r>
       <r>    6.0286    0.0000 </r>
       <r>    6.0541    0.0000 </r>
       <r>    6.0785    0.0000 </r>
       <r>    6.1099    0.0000 </r>
       <r>    6.8652    0.0000 </r>
       <r>    7.1141    0.0000 </r>
       <r>    7.1776    0.0000 </r>
       <r>    7.3688    0.0000 </r>
       <r>    7.5420    0.0000 </r>
       <r>    7.6448    0.0000 </r>
       <r>    7.7942    0.0000 </r>
       <r>    7.8323    0.0000 </r>
       <r>    7.8607    0.0000 </r>
       <r>    8.0232    0.0000 </r>
       <r>    8.0869    0.0000 </r>
       <r>    8.1921    0.0000 </r>
      </set>
      <set comment="kpoint 2">
       <r>  -30.8420    1.0000 </r>
       <r>  -30.8420    1.0000 </r>
       <r>  -30.8271    1.0000 </r>
       <r>  -30.8271    1.0000 </r>
       <r>  -30.6947    1.0000 </r>
       <r>  -30.6947    1.0000 </r>
       <r>  -30.6721    1.0000 </r>
       <r>  -30.6720    1.0000 </r>
       <r>  -29.3266    1.0000 </r>
       <r>  -29.3266    1.0000 </r>
       <r>  -29.3241    1.0000 </r>
       <r>  -29.3241    1.0000 </r>
       <r>  -29.2312    1.0000 </r>
       <r>  -29.2307    1.0000 </r>
       <r>  -29.2306    1.0000 </r>
       <r>  -29.2302    1.0000 </r>
       <r>  -29.2135    1.0000 </r>
       <r>  -29.2132    1.0000 </r>
       <r>  -29.2111    1.0000 </r>
       <r>  -29.2109    1.0000 </r>
       <r>  -29.1903    1.0000 </r>
       <r>  -29.1903    1.0000 </r>
       <r>  -29.1887    1.0000 </r>
       <r>  -29.1887    1.0000 </r>
       <r>  -29.1208    1.0000 </r>
       <r>  -29.1202    1.0000 </r>
       <r>  -29.1186    1.0000 </r>
       <r>  -29.1181    1.0000 </r>
       <r>  -29.0496    1.0000 </r>
       <r>  -29.0496    1.0000 </r>
       <r>  -29.0496    1.0000 </r>
       <r>  -29.0495    1.0000 </r>
       <r>  -15.4184    1.0000 </r>
       <r>  -15.4161    1.0000 </r>
       <r>  -15.3975    1.0000 </r>
       <r>  -15.3883    1.0000 </r>
       <r>  -15.2025    1.0000 </r>
       <r>  -15.1620    1.0000 </r>
       <r>  -15.1014    1.0000 </r>
       <r>  -15.0609    1.0000 </r>
       <r>  -14.8745    1.0000 </r>
       <r>  -14.8731    1.0000 </r>
       <r>  -14.7604    1.0000 </r>
       <r>  -14.7352    1.0000 </r>
       <r>  -14.7032    1.0000 </r>
       <r>  -14.6319    1.0000 </r>
       <r>  -14.5750    1.0000 </r>
       <r>  -14.5674    1.0000 </r>
       <r>  -14.4886    1.0000 </r>
       <r>  -14.4769    1.0000 </r>
       <r>  -14.4503    1.0000 </r>
       <r>  -14.3836    1.0000 </r>
       <r>  -14.3677    1.0000 </r>
       <r>  -14.3221    1.0000 </r>
       <r>  -14.3217    1.0000 </r>
       <r>  -14.2457    1.0000 </r>
       <r>  -14.2101    1.0000 </r>
       <r>  -14.1948    1.0000 </r>
       <r>  -14.1506    1.0000 </r>
       <r>  -14.1298    1.0000 </r>
       <r>  -12.8449    1.0000 </r>
       <r>  -12.8415    1.0000 </r>
       <r>  -12.8105    1.0000 </r>
       <r>  -12.7996    1.0000 </r>
       <r>  -12.7761    1.0000 </r>
       <r>  -12.7759    1.0000 </r>
       <r>  -12.7647    1.0000 </r>
       <r>  -12.7571    1.0000 </r>
       <r>  -12.7196    1.0000 </r>
       <r>  -12.7012    1.0000 </r>
       <r>  -12.6879    1.0000 </r>
       <r>  -12.6862    1.0000 </r>
       <r>  -12.5532    1.0000 </r>
       <r>  -12.5531    1.0000 </r>
       <r>  -12.5391    1.0000 </r>
       <r>  -12.5366    1.0000 </r>
       <r>  -12.4012    1.0000 </r>
       <r>  -12.3881    1.0000 </r>
       <r>  -12.3835    1.0000 </r>
       <r>  -12.3598    1.0000 </r>
       <r>  -12.3465    1.0000 </r>
       <r>  -12.3325    1.0000 </r>
       <r>  -11.9377    1.0000 </r>
       <r>  -11.9374    1.0000 </r>
       <r>   -2.5815    1.0000 </r>
       <r>   -2.5671    1.0000 </r>
       <r>   -2.5663    1.0000 </r>
       <r>   -2.5609    1.0000 </r>
       <r>   -2.4265    1.0000 </r>
       <r>   -2.4210    1.0000 </r>
       <r>   -2.0473    1.0000 </r>
       <r>   -2.0220    1.0000 </r>
       <r>   -1.9800    1.0000 </r>
       <r>   -1.9358    1.0000 </r>
       <r>   -1.8833    1.0000 </r>
       <r>   -1.8745    1.0000 </r>
       <r>   -1.5820    1.0000 </r>
       <r>   -1.5800    1.0000 </r>
       <r>   -1.4658    1.0000 </r>
       <r>   -1.4118    1.0000 </r>
       <r>   -1.4013    1.0000 </r>
       <r>   -1.3887    1.0000 </r>
       <r>   -1.3355    1.0000 </r>
       <r>   -1.3008    1.0000 </r>
       <r>   -1.2921    1.0000 </r>
       <r>   -1.2725    1.0000 </r>
       <r>   -1.1918    1.0000 </r>
       <r>   -1.1736    1.0000 </r>
       <r>   -0.9980    1.0000 </r>
       <r>   -0.9071    1.0000 </r>
       <r>   -0.8663    1.0000 </r>
       <r>   -0.8649    1.0000 </r>
       <r>   -0.8102    1.0000 </r>
       <r>   -0.7865    1.0000 </r>
       <r>   -0.7137    1.0000 </r>
       <r>   -0.6553    1.0000 </r>
       <r>   -0.6191    1.0000 </r>
       <r>   -0.5214    1.0000 </r>
       <r>   -0.5207    1.0000 </r>
       <r>   -0.4499    1.0000 </r>
       <r>   -0.4003    1.0000 </r>
       <r>   -0.3540    1.0000 </r>
       <r>   -0.3271    1.0000 </r>
       <r>   -0.2561    1.0000 </r>
       <r>   -0.2259    1.0000 </r>
       <r>   -0.1699    1.0000 </r>
       <r>   -0.1538    1.0000 </r>
       <r>   -0.1228    1.0000 </r>
       <r>   -0.1171    1.0000 </r>
       <r>   -0.0700    1.0000 </r>
       <r>   -0.0477    1.0000 </r>
       <r>   -0.0254    1.0000 </r>
       <r>   -0.0107    1.0000 </r>
       <r>    0.0470    1.0000 </r>
       <r>    0.0564    1.0000 </r>
       <r>    0.0895    1.0000 </r>
       <r>    0.1035    1.0000 </r>
       <r>    0.1425    1.0000 </r>
       <r>    0.1579    1.0000 </r>
       <r>    0.1789    1.0000 </r>
       <r>    0.3286    1.0000 </r>
       <r>    0.3607    1.0000 </r>
       <r>    0.3770    1.0000 </r>
       <r>    0.4005    1.0000 </r>
       <r>    0.4057    1.0000 </r>
       <r>    0.4193    1.0000 </r>
       <r>    0.4691    1.0000 </r>
       <r>    0.4847    1.0000 </r>
       <r>    0.7027    1.0000 </r>
[...]
       <r>    5.5879    0.0000 </r>
       <r>    5.6231    0.0000 </r>
       <r>    5.6235    0.0000 </r>
       <r>    5.8734    0.0000 </r>
       <r>    5.8735    0.0000 </r>
       <r>    5.8877    0.0000 </r>
       <r>    5.8881    0.0000 </r>
       <r>    6.0298    0.0000 </r>
       <r>    6.0298    0.0000 </r>
       <r>    6.0599    0.0000 </r>
       <r>    6.0602    0.0000 </r>
       <r>    6.2281    0.0000 </r>
       <r>    6.2286    0.0000 </r>
       <r>    6.2478    0.0000 </r>
       <r>    6.2480    0.0000 </r>
       <r>    6.3142    0.0000 </r>
       <r>    6.3151    0.0000 </r>
       <r>    6.3185    0.0000 </r>
       <r>    6.3197    0.0000 </r>
       <r>    6.4342    0.0000 </r>
       <r>    6.4343    0.0000 </r>
       <r>    6.4391    0.0000 </r>
       <r>    6.4393    0.0000 </r>
       <r>    7.6223    0.0000 </r>
       <r>    7.6226    0.0000 </r>
       <r>    7.6585    0.0000 </r>
       <r>    7.6599    0.0000 </r>
       <r>    8.6470    0.0000 </r>
       <r>    8.6507    0.0000 </r>
       <r>    8.7032    0.0000 </r>
       <r>    8.7039    0.0000 </r>
       <r>    8.8184    0.0000 </r>
       <r>    8.8194    0.0000 </r>
       <r>    8.8390    0.0000 </r>
       <r>    8.8410    0.0000 </r>
      </set>
     </set>
    </set>
   </array>
  </eigenvalues>
  <separator name="orbital magnetization" >
   <v name="MAGDIPOLOUT">      0.00000000      0.00000000      0.00000000</v>
  </separator>
  <dos>
   <i name="efermi">      1.69994155 </i>
   <total>
    <array>
     <dimension dim="1">gridpoints</dimension>
     <dimension dim="2">spin</dimension>
     <field>energy</field>
     <field>total</field>
     <field>integrated</field>
     <set>
      <set comment="spin 1">
       <r>   -32.8359     0.0000     0.0000 </r>
       <r>   -32.6897     0.0000     0.0000 </r>
       <r>   -32.5435     0.0000     0.0000 </r>
       <r>   -32.3973     0.0000     0.0000 </r>
       <r>   -32.2511     0.0000     0.0000 </r>
       <r>   -32.1050     0.0000     0.0000 </r>
       <r>   -31.9588     0.0000     0.0000 </r>
       <r>   -31.8126     0.0000     0.0000 </r>
       <r>   -31.6664     0.0000     0.0000 </r>
       <r>   -31.5202     0.0000     0.0000 </r>
       <r>   -31.3740     0.0000     0.0000 </r>
       <r>   -31.2279     0.0000     0.0000 </r>
       <r>   -31.0817     0.0000     0.0000 </r>
       <r>   -30.9355     0.0000     0.0000 </r>
       <r>   -30.7893    54.7236     7.9997 </r>
       <r>   -30.6431    54.7131    15.9981 </r>
       <r>   -30.4969     0.0000    16.0000 </r>
       <r>   -30.3508     0.0000    16.0000 </r>
       <r>   -30.2046     0.0000    16.0000 </r>
       <r>   -30.0584     0.0000    16.0000 </r>
       <r>   -29.9122     0.0000    16.0000 </r>
       <r>   -29.7660     0.0000    16.0000 </r>
       <r>   -29.6198     0.0000    16.0000 </r>
       <r>   -29.4737     0.0000    16.0000 </r>
       <r>   -29.3275    15.1813    18.2192 </r>
       <r>   -29.1813   139.4792    47.7229 </r>
       <r>   -29.0351    31.5056    63.9389 </r>
       <r>   -28.8889     0.0000    64.0000 </r>
       <r>   -28.7427     0.0000    64.0000 </r>
       <r>   -28.5966     0.0000    64.0000 </r>
       <r>   -28.4504     0.0000    64.0000 </r>
       <r>   -28.3042     0.0000    64.0000 </r>
       <r>   -28.1580     0.0000    64.0000 </r>
       <r>   -28.0118     0.0000    64.0000 </r>
       <r>   -27.8656     0.0000    64.0000 </r>
       <r>   -27.7195     0.0000    64.0000 </r>
       <r>   -27.5733     0.0000    64.0000 </r>
       <r>   -27.4271     0.0000    64.0000 </r>
       <r>   -27.2809     0.0000    64.0000 </r>
       <r>   -27.1347     0.0000    64.0000 </r>
       <r>   -26.9885     0.0000    64.0000 </r>
       <r>   -26.8424     0.0000    64.0000 </r>
       <r>   -26.6962     0.0000    64.0000 </r>
       <r>   -26.5500     0.0000    64.0000 </r>
       <r>   -26.4038     0.0000    64.0000 </r>
       <r>   -26.2576     0.0000    64.0000 </r>
       <r>   -26.1114     0.0000    64.0000 </r>
       <r>   -25.9653     0.0000    64.0000 </r>
       <r>   -25.8191     0.0000    64.0000 </r>
       <r>   -25.6729     0.0000    64.0000 </r>
       <r>   -25.5267     0.0000    64.0000 </r>
       <r>   -25.3805     0.0000    64.0000 </r>
       <r>   -25.2343     0.0000    64.0000 </r>
       <r>   -25.0882     0.0000    64.0000 </r>
       <r>   -24.9420     0.0000    64.0000 </r>
       <r>   -24.7958     0.0000    64.0000 </r>
       <r>   -24.6496     0.0000    64.0000 </r>
       <r>   -24.5034     0.0000    64.0000 </r>
       <r>   -24.3572     0.0000    64.0000 </r>
       <r>   -24.2111     0.0000    64.0000 </r>
       <r>   -24.0649     0.0000    64.0000 </r>
       <r>   -23.9187     0.0000    64.0000 </r>
       <r>   -23.7725     0.0000    64.0000 </r>
       <r>   -23.6263     0.0000    64.0000 </r>
       <r>   -23.4801     0.0000    64.0000 </r>
       <r>   -23.3340     0.0000    64.0000 </r>
       <r>   -23.1878     0.0000    64.0000 </r>
       <r>   -23.0416     0.0000    64.0000 </r>
       <r>   -22.8954     0.0000    64.0000 </r>
       <r>   -22.7492     0.0000    64.0000 </r>
       <r>   -22.6030     0.0000    64.0000 </r>
       <r>   -22.4569     0.0000    64.0000 </r>
       <r>   -22.3107     0.0000    64.0000 </r>
       <r>   -22.1645     0.0000    64.0000 </r>
       <r>   -22.0183     0.0000    64.0000 </r>
       <r>   -21.8721     0.0000    64.0000 </r>
       <r>   -21.7259     0.0000    64.0000 </r>
       <r>   -21.5798     0.0000    64.0000 </r>
       <r>   -21.4336     0.0000    64.0000 </r>
       <r>   -21.2874     0.0000    64.0000 </r>
       <r>   -21.1412     0.0000    64.0000 </r>
       <r>   -20.9950     0.0000    64.0000 </r>
       <r>   -20.8488     0.0000    64.0000 </r>
       <r>   -20.7027     0.0000    64.0000 </r>
       <r>   -20.5565     0.0000    64.0000 </r>
       <r>   -20.4103     0.0000    64.0000 </r>
       <r>   -20.2641     0.0000    64.0000 </r>
       <r>   -20.1179     0.0000    64.0000 </r>
       <r>   -19.9717     0.0000    64.0000 </r>
       <r>   -19.8256     0.0000    64.0000 </r>
       <r>   -19.6794     0.0000    64.0000 </r>
       <r>   -19.5332     0.0000    64.0000 </r>
       <r>   -19.3870     0.0000    64.0000 </r>
       <r>   -19.2408     0.0000    64.0000 </r>
       <r>   -19.0946     0.0000    64.0000 </r>
       <r>   -18.9485     0.0000    64.0000 </r>
       <r>   -18.8023     0.0000    64.0000 </r>
       <r>   -18.6561     0.0000    64.0000 </r>
       <r>   -18.5099     0.0000    64.0000 </r>
       <r>   -18.3637     0.0000    64.0000 </r>
       <r>   -18.2175     0.0000    64.0000 </r>
       <r>   -18.0714     0.0000    64.0000 </r>
       <r>   -17.9252     0.0000    64.0000 </r>
       <r>   -17.7790     0.0000    64.0000 </r>
       <r>   -17.6328     0.0000    64.0000 </r>
       <r>   -17.4866     0.0000    64.0000 </r>
       <r>   -17.3404     0.0000    64.0000 </r>
       <r>   -17.1943     0.0000    64.0000 </r>
       <r>   -17.0481     0.0000    64.0000 </r>
       <r>   -16.9019     0.0000    64.0000 </r>
       <r>   -16.7557     0.0000    64.0000 </r>
       <r>   -16.6095     0.0000    64.0000 </r>
       <r>   -16.4633     0.0000    64.0000 </r>
       <r>   -16.3172     0.0000    64.0000 </r>
       <r>   -16.1710     0.0000    64.0000 </r>
       <r>   -16.0248     0.0000    64.0000 </r>
       <r>   -15.8786     0.0000    64.0000 </r>
       <r>   -15.7324     0.0000    64.0000 </r>
       <r>   -15.5862     0.0002    64.0000 </r>
       <r>   -15.4401     6.3430    65.3439 </r>
       <r>   -15.2939    10.1756    68.0969 </r>
       <r>   -15.1477    18.9479    71.8897 </r>
       <r>   -15.0015     9.2590    75.3848 </r>
       <r>   -14.8553    11.4172    78.3721 </r>
       <r>   -14.7091    26.3666    84.4064 </r>
       <r>   -14.5630    26.4230    91.2793 </r>
       <r>   -14.4168    31.7015    99.4467 </r>
       <r>   -14.2706    28.7679   106.8512 </r>
       <r>   -14.1244    32.3356   114.5342 </r>
       <r>   -13.9782    12.9245   119.5612 </r>
       <r>   -13.8320     0.0000   120.0000 </r>
       <r>   -13.6859     0.0000   120.0000 </r>
       <r>   -13.5397     0.0000   120.0000 </r>
       <r>   -13.3935     0.0000   120.0000 </r>
       <r>   -13.2473     0.0000   120.0000 </r>
       <r>   -13.1011     0.0000   120.0000 </r>
       <r>   -12.9549     1.4608   120.2135 </r>
       <r>   -12.8088    45.0219   127.4148 </r>
       <r>   -12.6626    36.6198   141.0147 </r>
       <r>   -12.5164    28.4918   148.9567 </r>
       <r>   -12.3702    38.6346   158.4081 </r>
       <r>   -12.2240     5.0531   161.0303 </r>
       <r>   -12.0778     7.3230   162.7788 </r>
       <r>   -11.9317    16.9888   166.9783 </r>
       <r>   -11.7855     0.0000   168.0000 </r>
       <r>   -11.6393     0.0000   168.0000 </r>
       <r>   -11.4931     0.0000   168.0000 </r>
       <r>   -11.3469     0.0000   168.0000 </r>
       <r>   -11.2007     0.0000   168.0000 </r>
       <r>   -11.0546     0.0000   168.0000 </r>
       <r>   -10.9084     0.0000   168.0000 </r>
       <r>   -10.7622     0.0000   168.0000 </r>
       <r>   -10.6160     0.0000   168.0000 </r>
       <r>   -10.4698     0.0000   168.0000 </r>
       <r>   -10.3236     0.0000   168.0000 </r>
       <r>   -10.1775     0.0000   168.0000 </r>
       <r>   -10.0313     0.0000   168.0000 </r>
       <r>    -9.8851     0.0000   168.0000 </r>
       <r>    -9.7389     0.0000   168.0000 </r>
       <r>    -9.5927     0.0000   168.0000 </r>
       <r>    -9.4465     0.0000   168.0000 </r>
       <r>    -9.3004     0.0000   168.0000 </r>
       <r>    -9.1542     0.0000   168.0000 </r>
       <r>    -9.0080     0.0000   168.0000 </r>
       <r>    -8.8618     0.0000   168.0000 </r>
       <r>    -8.7156     0.0000   168.0000 </r>
       <r>    -8.5694     0.0000   168.0000 </r>
       <r>    -8.4233     0.0000   168.0000 </r>
       <r>    -8.2771     0.0000   168.0000 </r>
       <r>    -8.1309     0.0000   168.0000 </r>
       <r>    -7.9847     0.0000   168.0000 </r>
       <r>    -7.8385     0.0000   168.0000 </r>
       <r>    -7.6923     0.0000   168.0000 </r>
       <r>    -7.5462     0.0000   168.0000 </r>
       <r>    -7.4000     0.0000   168.0000 </r>
       <r>    -7.2538     0.0000   168.0000 </r>
       <r>    -7.1076     0.0000   168.0000 </r>
       <r>    -6.9614     0.0000   168.0000 </r>
       <r>    -6.8152     0.0000   168.0000 </r>
       <r>    -6.6691     0.0000   168.0000 </r>
       <r>    -6.5229     0.0000   168.0000 </r>
       <r>    -6.3767     0.0000   168.0000 </r>
       <r>    -6.2305     0.0000   168.0000 </r>
       <r>    -6.0843     0.0000   168.0000 </r>
       <r>    -5.9381     0.0000   168.0000 </r>
       <r>    -5.7920     0.0000   168.0000 </r>
       <r>    -5.6458     0.0000   168.0000 </r>
       <r>    -5.4996     0.0000   168.0000 </r>
       <r>    -5.3534     0.0000   168.0000 </r>
       <r>    -5.2072     0.0000   168.0000 </r>
       <r>    -5.0610     0.0000   168.0000 </r>
       <r>    -4.9149     0.0000   168.0000 </r>
       <r>    -4.7687     0.0000   168.0000 </r>
       <r>    -4.6225     0.0000   168.0000 </r>
       <r>    -4.4763     0.0000   168.0000 </r>
       <r>    -4.3301     0.0000   168.0000 </r>
       <r>    -4.1839     0.0000   168.0000 </r>
       <r>    -4.0378     0.0000   168.0000 </r>
       <r>    -3.8916     0.0000   168.0000 </r>
       <r>    -3.7454     0.0000   168.0000 </r>
       <r>    -3.5992     0.0000   168.0000 </r>
       <r>    -3.4530     0.0000   168.0000 </r>
       <r>    -3.3068     0.0000   168.0000 </r>
       <r>    -3.1607     1.0415   168.1522 </r>
       <r>    -3.0145     4.2544   169.7053 </r>
       <r>    -2.8683     3.4619   170.5061 </r>
       <r>    -2.7221     9.1639   172.6729 </r>
       <r>    -2.5759    21.1369   178.6211 </r>
       <r>    -2.4297    10.0230   182.6944 </r>
       <r>    -2.2836     9.6281   186.1366 </r>
       <r>    -2.1374    12.5696   189.7646 </r>
       <r>    -1.9912    22.5483   194.9681 </r>
       <r>    -1.8450    21.6449   200.8673 </r>
       <r>    -1.6988    17.9830   205.8163 </r>
       <r>    -1.5526    20.3286   210.7477 </r>
       <r>    -1.4065    19.8462   216.0001 </r>
       <r>    -1.2603    21.2408   221.8290 </r>
       <r>    -1.1141    19.7666   228.1812 </r>
       <r>    -0.9679    19.6587   233.3738 </r>
       <r>    -0.8217    17.2099   237.8335 </r>
       <r>    -0.6755    16.8345   242.5755 </r>
       <r>    -0.5294    20.1038   247.4909 </r>
       <r>    -0.3832    12.9435   251.5588 </r>
       <r>    -0.2370    16.7922   255.8245 </r>
       <r>    -0.0908    32.0762   263.0380 </r>
       <r>     0.0554    18.4375   267.5025 </r>
       <r>     0.2016    22.7334   274.0420 </r>
       <r>     0.3477    26.0425   280.7080 </r>
       <r>     0.4939    31.6764   288.3076 </r>
       <r>     0.6401    21.6497   293.9773 </r>
       <r>     0.7863    27.3511   301.1024 </r>
       <r>     0.9325    27.0320   308.5245 </r>
       <r>     1.0787    37.4573   317.4600 </r>
       <r>     1.2248    18.8861   324.0629 </r>
       <r>     1.3710    17.6880   330.0128 </r>
       <r>     1.5172    14.3571   334.0206 </r>
       <r>     1.6634     5.4468   335.9993 </r>
       <r>     1.8096     0.0000   336.0000 </r>
       <r>     1.9558     0.0000   336.0000 </r>
       <r>     2.1019     0.0000   336.0000 </r>
       <r>     2.2481     0.0000   336.0000 </r>
       <r>     2.3943     0.0000   336.0000 </r>
       <r>     2.5405     0.0000   336.0000 </r>
       <r>     2.6867     0.0000   336.0000 </r>
       <r>     2.8329     0.0000   336.0000 </r>
       <r>     2.9790     0.0000   336.0000 </r>
       <r>     3.1252     0.0000   336.0000 </r>
       <r>     3.2714     0.0000   336.0000 </r>
       <r>     3.4176     0.0000   336.0000 </r>
       <r>     3.5638     0.0000   336.0000 </r>
       <r>     3.7100     0.0000   336.0000 </r>
       <r>     3.8561     0.0000   336.0000 </r>
       <r>     4.0023     0.0000   336.0000 </r>
       <r>     4.1485     0.0000   336.0000 </r>
       <r>     4.2947     0.0000   336.0000 </r>
       <r>     4.4409     1.5869   336.2736 </r>
       <r>     4.5871     5.6370   337.6626 </r>
       <r>     4.7332     2.7334   338.5662 </r>
       <r>     4.8794     2.1562   339.2475 </r>
       <r>     5.0256     3.4688   340.0696 </r>
       <r>     5.1718    15.6638   343.0137 </r>
       <r>     5.3180    10.8511   345.7946 </r>
       <r>     5.4642    17.2527   349.7460 </r>
       <r>     5.6103    15.6281   354.2585 </r>
       <r>     5.7565    20.4884   360.3701 </r>
       <r>     5.9027    26.1719   366.5551 </r>
       <r>     6.0489    20.4378   372.3418 </r>
       <r>     6.1951    15.1310   376.1494 </r>
       <r>     6.3413    22.8049   382.0004 </r>
       <r>     6.4874     6.2534   383.7735 </r>
       <r>     6.6336     0.0000   384.0000 </r>
       <r>     6.7798     0.0000   384.0000 </r>
       <r>     6.9260     0.1404   384.0205 </r>
       <r>     7.0722     0.4607   384.1351 </r>
       <r>     7.2184     0.7189   384.3238 </r>
       <r>     7.3645     1.1248   384.6280 </r>
       <r>     7.5107     1.7437   385.0934 </r>
       <r>     7.6569     4.8168   386.0323 </r>
       <r>     7.8031     9.5676   388.3726 </r>
       <r>     7.9493    11.8452   391.6951 </r>
       <r>     8.0955     9.2868   394.2430 </r>
       <r>     8.2416     8.3109   396.3868 </r>
       <r>     8.3878     9.3906   398.7061 </r>
       <r>     8.5340     9.8345   401.3543 </r>
       <r>     8.6802     9.5999   403.9346 </r>
       <r>     8.8264    10.9219   406.9456 </r>
       <r>     8.9726     1.6647   407.9256 </r>
       <r>     9.1187     0.0000   408.0000 </r>
       <r>     9.2649     0.0000   408.0000 </r>
       <r>     9.4111     0.0000   408.0000 </r>
       <r>     9.5573     0.0000   408.0000 </r>
       <r>     9.7035     0.0000   408.0000 </r>
       <r>     9.8497     0.0000   408.0000 </r>
       <r>     9.9958     0.0000   408.0000 </r>
       <r>    10.1420     0.0000   408.0000 </r>
       <r>    10.2882     0.0000   408.0000 </r>
       <r>    10.4344     0.0000   408.0000 </r>
       <r>    10.5806     0.0000   408.0000 </r>
       <r>    10.7268     0.0000   408.0000 </r>
       <r>    10.8729     0.0000   408.0000 </r>
       <r>    11.0191     0.0000   408.0000 </r>
      </set>
     </set>
    </array>
   </total>
  </dos>
 </calculation>
 <structure name="finalpos" >
  <crystal>
   <varray name="basis" >
    <v>       4.00260054       0.00000000       0.00000000 </v>
    <v>       0.00000000      27.33103009       0.00000000 </v>
    <v>       0.00000000       0.00000000       5.82266281 </v>
   </varray>
   <i name="volume">    636.97133801 </i>
   <varray name="rec_basis" >
    <v>       0.24983757       0.00000000       0.00000000 </v>
    <v>       0.00000000       0.03658845       0.00000000 </v>
    <v>       0.00000000       0.00000000       0.17174273 </v>
   </varray>
  </crystal>
  <varray name="positions" >
   <v>       0.00000000       0.29117294       0.16898472 </v>
   <v>       0.00000000       0.70882706       0.66898474 </v>
   <v>       0.50000000       0.79117294       0.16898472 </v>
   <v>       0.50000000       0.20882706       0.66898474 </v>
   <v>       0.00000000       0.44922753       0.73569686 </v>
   <v>       0.00000000       0.55077247       0.23569686 </v>
   <v>       0.50000000       0.94922753       0.73569686 </v>
   <v>       0.50000000       0.05077247       0.23569686 </v>
   <v>       0.50000000       0.33886854       0.70592084 </v>
   <v>       0.50000000       0.66113146       0.20592084 </v>
   <v>       0.00000000       0.83886854       0.70592084 </v>
   <v>       0.00000000       0.16113146       0.20592084 </v>
   <v>       0.50000000       0.44147243       0.23855770 </v>
   <v>       0.50000000       0.55852757       0.73855771 </v>
   <v>       0.00000000       0.94147243       0.23855770 </v>
   <v>       0.00000000       0.05852757       0.73855771 </v>
   <v>       0.50000000       0.28524276       0.91582011 </v>
   <v>       0.50000000       0.71475721       0.41582011 </v>
   <v>       0.00000000       0.78524279       0.91582011 </v>
   <v>       0.00000000       0.21475724       0.41582011 </v>
   <v>       0.50000000       0.30132950       0.44141213 </v>
   <v>       0.50000000       0.69867050       0.94141216 </v>
   <v>       0.00000000       0.80132950       0.44141213 </v>
   <v>       0.00000000       0.19867050       0.94141216 </v>
   <v>       0.50000000       0.38856001       0.04034251 </v>
   <v>       0.50000000       0.61143999       0.54034248 </v>
   <v>       0.00000000       0.88856001       0.04034251 </v>
   <v>       0.00000000       0.11143999       0.54034248 </v>
   <v>       0.50000000       0.40800519       0.54803473 </v>
   <v>       0.50000000       0.59199484       0.04803473 </v>
   <v>       0.00000000       0.90800516       0.54803473 </v>
   <v>       0.00000000       0.09199481       0.04803473 </v>
   <v>       0.50000000       0.49128547       0.99263420 </v>
   <v>       0.50000000       0.50871456       0.49263420 </v>
   <v>       0.00000000       0.99128544       0.99263420 </v>
   <v>       0.00000000       0.00871453       0.49263420 </v>
   <v>       0.00000000       0.34948932       0.74456409 </v>
   <v>       0.00000000       0.65051071       0.24456409 </v>
   <v>       0.50000000       0.84948929       0.74456409 </v>
   <v>       0.50000000       0.15051068       0.24456409 </v>
   <v>       0.00000000       0.45153464       0.27233217 </v>
   <v>       0.00000000       0.54846533       0.77233217 </v>
   <v>       0.50000000       0.95153467       0.27233217 </v>
   <v>       0.50000000       0.04846536       0.77233217 </v>
  </varray>
 </structure>
</modeling>
